
     Program PWSCF v.6.3 starts on 10Nov2020 at 14:37:51 

     This program is part of the open-source Quantum ESPRESSO suite
     for quantum simulation of materials; please cite
         "P. Giannozzi et al., J. Phys.:Condens. Matter 21 395502 (2009);
         "P. Giannozzi et al., J. Phys.:Condens. Matter 29 465901 (2017);
          URL http://www.quantum-espresso.org", 
     in publications or presentations arising from this work. More details at
     http://www.quantum-espresso.org/quote

     Parallel version (MPI), running on    96 processors

     MPI processes distributed on     3 nodes
     K-points division:     npool     =      96
     Reading input from scf.in
Warning: card &IONS ignored
Warning: card / ignored
Warning: card &CELL ignored
Warning: card / ignored

     Current dimensions of program PWSCF are:
     Max number of different atomic species (ntypx) = 10
     Max number of k-points (npk) =  40000
     Max angular momentum in pseudopotentials (lmaxx) =  3

     Subspace diagonalization in iterative solution of the eigenvalue problem:
     a serial algorithm will be used

 
     G-vector sticks info
     --------------------
     sticks:   dense  smooth     PW     G-vecs:    dense   smooth      PW
     Sum        2353    1169    393                98323    34789    6617
 


     bravais-lattice index     =            0
     lattice parameter (alat)  =       8.3266  a.u.
     unit-cell volume          =     359.5699 (a.u.)^3
     number of atoms/cell      =            2
     number of atomic types    =            1
     number of electrons       =        28.00
     number of Kohn-Sham states=           18
     kinetic-energy cutoff     =      80.0000  Ry
     charge density cutoff     =     640.0000  Ry
     convergence threshold     =      1.0E-13
     mixing beta               =       0.7000
     number of iterations used =            8  plain     mixing
     Exchange-correlation      = SLA  PW   PSX  PSC ( 1  4 10  8 0 0)

     celldm(1)=   8.326557  celldm(2)=   0.000000  celldm(3)=   0.000000
     celldm(4)=   0.000000  celldm(5)=   0.000000  celldm(6)=   0.000000

     crystal axes: (cart. coord. in units of alat)
               a(1) = (  -0.660544   0.660544   0.356882 )  
               a(2) = (   0.660544  -0.660544   0.356882 )  
               a(3) = (   0.660544   0.660544  -0.356882 )  

     reciprocal axes: (cart. coord. in units 2 pi/alat)
               b(1) = (  0.000000  0.756952  1.401025 )  
               b(2) = (  0.756952  0.000000  1.401025 )  
               b(3) = (  0.756952  0.756952  0.000000 )  


     PseudoPot. # 1 for Sn read from file:
     /n/home08/xiey/q-e/pseudo/sn_pbesol_v1.4.uspp.F.UPF
     MD5 check sum: 463fec1d5456f1e96ec1bfcad4b7b038
     Pseudo is Ultrasoft + core correction, Zval = 14.0
     Generated by new atomic code, or converted to UPF format
     Using radial grid of  891 points,  6 beta functions with: 
                l(1) =   0
                l(2) =   0
                l(3) =   1
                l(4) =   1
                l(5) =   2
                l(6) =   2
     Q(r) pseudized with  8 coefficients,  rinner =    1.350   1.350   1.350
                                                       1.350   1.350

     atomic species   valence    mass     pseudopotential
        Sn            14.00   118.71000     Sn( 1.00)

     16 Sym. Ops., with inversion, found ( 8 have fractional translation)


                                    s                        frac. trans.

      isym =  1     identity                                     

 cryst.   s( 1) = (     1          0          0      )
                  (     0          1          0      )
                  (     0          0          1      )

 cart.    s( 1) = (  1.0000000  0.0000000  0.0000000 )
                  (  0.0000000  1.0000000  0.0000000 )
                  (  0.0000000  0.0000000  1.0000000 )


      isym =  2     180 deg rotation - cart. axis [0,0,1]        

 cryst.   s( 2) = (     0          1          0      )
                  (     1          0          0      )
                  (    -1         -1         -1      )

 cart.    s( 2) = ( -1.0000000  0.0000000  0.0000000 )
                  (  0.0000000 -1.0000000  0.0000000 )
                  (  0.0000000  0.0000000  1.0000000 )


      isym =  3     180 deg rotation - cart. axis [0,1,0]        

 cryst.   s( 3) = (     0          0          1      )    f =( -0.2500000 )
                  (    -1         -1         -1      )       (  0.2500000 )
                  (     1          0          0      )       (  0.5000000 )

 cart.    s( 3) = ( -1.0000000  0.0000000  0.0000000 )    f =(  0.6605436 )
                  (  0.0000000  1.0000000  0.0000000 )       (  0.0000000 )
                  (  0.0000000  0.0000000 -1.0000000 )       ( -0.1784408 )


      isym =  4     180 deg rotation - cart. axis [1,0,0]        

 cryst.   s( 4) = (    -1         -1         -1      )    f =( -0.2500000 )
                  (     0          0          1      )       (  0.2500000 )
                  (     0          1          0      )       ( -0.5000000 )

 cart.    s( 4) = (  1.0000000  0.0000000  0.0000000 )    f =(  0.0000000 )
                  (  0.0000000 -1.0000000  0.0000000 )       ( -0.6605436 )
                  (  0.0000000  0.0000000 -1.0000000 )       (  0.1784408 )


      isym =  5     180 deg rotation - cart. axis [1,1,0]        

 cryst.   s( 5) = (    -1          0          0      )
                  (     0         -1          0      )
                  (     1          1          1      )

 cart.    s( 5) = (  0.0000000  1.0000000  0.0000000 )
                  (  1.0000000  0.0000000  0.0000000 )
                  (  0.0000000  0.0000000 -1.0000000 )


      isym =  6     180 deg rotation - cart. axis [1,-1,0]       

 cryst.   s( 6) = (     0         -1          0      )
                  (    -1          0          0      )
                  (     0          0         -1      )

 cart.    s( 6) = (  0.0000000 -1.0000000  0.0000000 )
                  ( -1.0000000  0.0000000  0.0000000 )
                  (  0.0000000  0.0000000 -1.0000000 )


      isym =  7      90 deg rotation - cart. axis [0,0,-1]       

 cryst.   s( 7) = (     1          1          1      )    f =( -0.2500000 )
                  (     0          0         -1      )       (  0.2500000 )
                  (    -1          0          0      )       (  0.5000000 )

 cart.    s( 7) = (  0.0000000  1.0000000  0.0000000 )    f =(  0.6605436 )
                  ( -1.0000000  0.0000000  0.0000000 )       (  0.0000000 )
                  (  0.0000000  0.0000000  1.0000000 )       ( -0.1784408 )


      isym =  8      90 deg rotation - cart. axis [0,0,1]        

 cryst.   s( 8) = (     0          0         -1      )    f =( -0.2500000 )
                  (     1          1          1      )       (  0.2500000 )
                  (     0         -1          0      )       ( -0.5000000 )

 cart.    s( 8) = (  0.0000000 -1.0000000  0.0000000 )    f =(  0.0000000 )
                  (  1.0000000  0.0000000  0.0000000 )       ( -0.6605436 )
                  (  0.0000000  0.0000000  1.0000000 )       (  0.1784408 )


      isym =  9     inversion                                    

 cryst.   s( 9) = (    -1          0          0      )    f =( -0.2500000 )
                  (     0         -1          0      )       (  0.2500000 )
                  (     0          0         -1      )       (  0.5000000 )

 cart.    s( 9) = ( -1.0000000  0.0000000  0.0000000 )    f =(  0.6605436 )
                  (  0.0000000 -1.0000000  0.0000000 )       (  0.0000000 )
                  (  0.0000000  0.0000000 -1.0000000 )       ( -0.1784408 )


      isym = 10     inv. 180 deg rotation - cart. axis [0,0,1]   

 cryst.   s(10) = (     0         -1          0      )    f =( -0.2500000 )
                  (    -1          0          0      )       (  0.2500000 )
                  (     1          1          1      )       ( -0.5000000 )

 cart.    s(10) = (  1.0000000  0.0000000  0.0000000 )    f =(  0.0000000 )
                  (  0.0000000  1.0000000  0.0000000 )       ( -0.6605436 )
                  (  0.0000000  0.0000000 -1.0000000 )       (  0.1784408 )


      isym = 11     inv. 180 deg rotation - cart. axis [0,1,0]   

 cryst.   s(11) = (     0          0         -1      )
                  (     1          1          1      )
                  (    -1          0          0      )

 cart.    s(11) = (  1.0000000  0.0000000  0.0000000 )
                  (  0.0000000 -1.0000000  0.0000000 )
                  (  0.0000000  0.0000000  1.0000000 )


      isym = 12     inv. 180 deg rotation - cart. axis [1,0,0]   

 cryst.   s(12) = (     1          1          1      )
                  (     0          0         -1      )
                  (     0         -1          0      )

 cart.    s(12) = ( -1.0000000  0.0000000  0.0000000 )
                  (  0.0000000  1.0000000  0.0000000 )
                  (  0.0000000  0.0000000  1.0000000 )


      isym = 13     inv. 180 deg rotation - cart. axis [1,1,0]   

 cryst.   s(13) = (     1          0          0      )    f =( -0.2500000 )
                  (     0          1          0      )       (  0.2500000 )
                  (    -1         -1         -1      )       (  0.5000000 )

 cart.    s(13) = (  0.0000000 -1.0000000  0.0000000 )    f =(  0.6605436 )
                  ( -1.0000000  0.0000000  0.0000000 )       (  0.0000000 )
                  (  0.0000000  0.0000000  1.0000000 )       ( -0.1784408 )


      isym = 14     inv. 180 deg rotation - cart. axis [1,-1,0]  

 cryst.   s(14) = (     0          1          0      )    f =( -0.2500000 )
                  (     1          0          0      )       (  0.2500000 )
                  (     0          0          1      )       ( -0.5000000 )

 cart.    s(14) = (  0.0000000  1.0000000  0.0000000 )    f =(  0.0000000 )
                  (  1.0000000  0.0000000  0.0000000 )       ( -0.6605436 )
                  (  0.0000000  0.0000000  1.0000000 )       (  0.1784408 )


      isym = 15     inv.  90 deg rotation - cart. axis [0,0,-1]  

 cryst.   s(15) = (    -1         -1         -1      )
                  (     0          0          1      )
                  (     1          0          0      )

 cart.    s(15) = (  0.0000000 -1.0000000  0.0000000 )
                  (  1.0000000  0.0000000  0.0000000 )
                  (  0.0000000  0.0000000 -1.0000000 )


      isym = 16     inv.  90 deg rotation - cart. axis [0,0,1]   

 cryst.   s(16) = (     0          0          1      )
                  (    -1         -1         -1      )
                  (     0          1          0      )

 cart.    s(16) = (  0.0000000  1.0000000  0.0000000 )
                  ( -1.0000000  0.0000000  0.0000000 )
                  (  0.0000000  0.0000000 -1.0000000 )


   Cartesian axes

     site n.     atom                  positions (alat units)
         1           Sn  tau(   1) = (   0.0000000   0.0000000   0.0000000  )
         2           Sn  tau(   2) = (   0.6605436   0.0000000   0.1784408  )

   Crystallographic axes

     site n.     atom                  positions (cryst. coord.)
         1           Sn  tau(   1) = (  0.0000000  0.0000000  0.0000000  )
         2           Sn  tau(   2) = (  0.2500000  0.7500000  0.5000000  )

     number of k points=   349  Marzari-Vanderbilt smearing, width (Ry)=  0.0100
                       cart. coord. in units 2pi/alat
        k(    1) = (   0.0000000   0.0000000   0.0000000), wk =   0.0004883
        k(    2) = (   0.0473095   0.0473095   0.0000000), wk =   0.0019531
        k(    3) = (   0.0946190   0.0946190   0.0000000), wk =   0.0019531
        k(    4) = (   0.1419286   0.1419286   0.0000000), wk =   0.0019531
        k(    5) = (   0.1892381   0.1892381   0.0000000), wk =   0.0019531
        k(    6) = (   0.2365476   0.2365476   0.0000000), wk =   0.0019531
        k(    7) = (   0.2838571   0.2838571   0.0000000), wk =   0.0019531
        k(    8) = (   0.3311667   0.3311667   0.0000000), wk =   0.0019531
        k(    9) = (  -0.3784762  -0.3784762   0.0000000), wk =   0.0009766
        k(   10) = (   0.0473095   0.0000000   0.0875641), wk =   0.0039062
        k(   11) = (   0.0946190   0.0473095   0.0875641), wk =   0.0078125
        k(   12) = (   0.1419286   0.0946190   0.0875641), wk =   0.0078125
        k(   13) = (   0.1892381   0.1419286   0.0875641), wk =   0.0078125
        k(   14) = (   0.2365476   0.1892381   0.0875641), wk =   0.0078125
        k(   15) = (   0.2838571   0.2365476   0.0875641), wk =   0.0078125
        k(   16) = (   0.3311667   0.2838571   0.0875641), wk =   0.0078125
        k(   17) = (   0.3784762   0.3311667   0.0875641), wk =   0.0078125
        k(   18) = (   0.0946190   0.0000000   0.1751282), wk =   0.0039062
        k(   19) = (   0.1419286   0.0473095   0.1751282), wk =   0.0078125
        k(   20) = (   0.1892381   0.0946190   0.1751282), wk =   0.0078125
        k(   21) = (   0.2365476   0.1419286   0.1751282), wk =   0.0078125
        k(   22) = (   0.2838571   0.1892381   0.1751282), wk =   0.0078125
        k(   23) = (   0.3311667   0.2365476   0.1751282), wk =   0.0078125
        k(   24) = (   0.3784762   0.2838571   0.1751282), wk =   0.0078125
        k(   25) = (   0.4257857   0.3311667   0.1751282), wk =   0.0039062
        k(   26) = (   0.0473095  -0.0473095   0.1751282), wk =   0.0039062
        k(   27) = (   0.1419286   0.0000000   0.2626922), wk =   0.0039062
        k(   28) = (   0.1892381   0.0473095   0.2626922), wk =   0.0078125
        k(   29) = (   0.2365476   0.0946190   0.2626922), wk =   0.0078125
        k(   30) = (   0.2838571   0.1419286   0.2626922), wk =   0.0078125
        k(   31) = (   0.3311667   0.1892381   0.2626922), wk =   0.0078125
        k(   32) = (   0.3784762   0.2365476   0.2626922), wk =   0.0078125
        k(   33) = (   0.4257857   0.2838571   0.2626922), wk =   0.0078125
        k(   34) = (   0.0473095  -0.0946190   0.2626922), wk =   0.0078125
        k(   35) = (   0.1892381   0.0000000   0.3502563), wk =   0.0039062
        k(   36) = (   0.2365476   0.0473095   0.3502563), wk =   0.0078125
        k(   37) = (   0.2838571   0.0946190   0.3502563), wk =   0.0078125
        k(   38) = (   0.3311667   0.1419286   0.3502563), wk =   0.0078125
        k(   39) = (   0.3784762   0.1892381   0.3502563), wk =   0.0078125
        k(   40) = (   0.4257857   0.2365476   0.3502563), wk =   0.0078125
        k(   41) = (   0.4730952   0.2838571   0.3502563), wk =   0.0039062
        k(   42) = (   0.0473095  -0.1419286   0.3502563), wk =   0.0078125
        k(   43) = (   0.0946190  -0.0946190   0.3502563), wk =   0.0039062
        k(   44) = (   0.2365476   0.0000000   0.4378204), wk =   0.0039062
        k(   45) = (   0.2838571   0.0473095   0.4378204), wk =   0.0078125
        k(   46) = (   0.3311667   0.0946190   0.4378204), wk =   0.0078125
        k(   47) = (   0.3784762   0.1419286   0.4378204), wk =   0.0078125
        k(   48) = (   0.4257857   0.1892381   0.4378204), wk =   0.0078125
        k(   49) = (   0.4730952   0.2365476   0.4378204), wk =   0.0078125
        k(   50) = (   0.0473095  -0.1892381   0.4378204), wk =   0.0078125
        k(   51) = (   0.0946190  -0.1419286   0.4378204), wk =   0.0078125
        k(   52) = (   0.2838571   0.0000000   0.5253845), wk =   0.0039062
        k(   53) = (   0.3311667   0.0473095   0.5253845), wk =   0.0078125
        k(   54) = (   0.3784762   0.0946190   0.5253845), wk =   0.0078125
        k(   55) = (   0.4257857   0.1419286   0.5253845), wk =   0.0078125
        k(   56) = (   0.4730952   0.1892381   0.5253845), wk =   0.0078125
        k(   57) = (   0.5204047   0.2365476   0.5253845), wk =   0.0039062
        k(   58) = (   0.0473095  -0.2365476   0.5253845), wk =   0.0078125
        k(   59) = (   0.0946190  -0.1892381   0.5253845), wk =   0.0078125
        k(   60) = (   0.1419286  -0.1419286   0.5253845), wk =   0.0039062
        k(   61) = (   0.3311667   0.0000000   0.6129485), wk =   0.0039062
        k(   62) = (   0.3784762   0.0473095   0.6129485), wk =   0.0078125
        k(   63) = (   0.4257857   0.0946190   0.6129485), wk =   0.0078125
        k(   64) = (   0.4730952   0.1419286   0.6129485), wk =   0.0078125
        k(   65) = (   0.5204047   0.1892381   0.6129485), wk =   0.0078125
        k(   66) = (   0.0473095  -0.2838571   0.6129485), wk =   0.0078125
        k(   67) = (   0.0946190  -0.2365476   0.6129485), wk =   0.0078125
        k(   68) = (   0.1419286  -0.1892381   0.6129485), wk =   0.0078125
        k(   69) = (  -0.3784762   0.0000000  -0.7005126), wk =   0.0019531
        k(   70) = (  -0.3311667   0.0473095  -0.7005126), wk =   0.0078125
        k(   71) = (  -0.2838571   0.0946190  -0.7005126), wk =   0.0078125
        k(   72) = (  -0.2365476   0.1419286  -0.7005126), wk =   0.0078125
        k(   73) = (  -0.1892381   0.1892381  -0.7005126), wk =   0.0039062
        k(   74) = (   0.0946190   0.0946190   0.1751282), wk =   0.0039062
        k(   75) = (   0.1419286   0.1419286   0.1751282), wk =   0.0039062
        k(   76) = (   0.1892381   0.1892381   0.1751282), wk =   0.0039062
        k(   77) = (   0.2365476   0.2365476   0.1751282), wk =   0.0039062
        k(   78) = (   0.2838571   0.2838571   0.1751282), wk =   0.0039062
        k(   79) = (   0.3311667   0.3311667   0.1751282), wk =   0.0039062
        k(   80) = (   0.3784762   0.3784762   0.1751282), wk =   0.0019531
        k(   81) = (   0.0000000   0.0000000   0.1751282), wk =   0.0009766
        k(   82) = (   0.1419286   0.0946190   0.2626922), wk =   0.0078125
        k(   83) = (   0.1892381   0.1419286   0.2626922), wk =   0.0078125
        k(   84) = (   0.2365476   0.1892381   0.2626922), wk =   0.0078125
        k(   85) = (   0.2838571   0.2365476   0.2626922), wk =   0.0078125
        k(   86) = (   0.3311667   0.2838571   0.2626922), wk =   0.0078125
        k(   87) = (   0.3784762   0.3311667   0.2626922), wk =   0.0078125
        k(   88) = (   0.0000000  -0.0473095   0.2626922), wk =   0.0039062
        k(   89) = (   0.1892381   0.0946190   0.3502563), wk =   0.0078125
        k(   90) = (   0.2365476   0.1419286   0.3502563), wk =   0.0078125
        k(   91) = (   0.2838571   0.1892381   0.3502563), wk =   0.0078125
        k(   92) = (   0.3311667   0.2365476   0.3502563), wk =   0.0078125
        k(   93) = (   0.3784762   0.2838571   0.3502563), wk =   0.0078125
        k(   94) = (   0.4257857   0.3311667   0.3502563), wk =   0.0039062
        k(   95) = (   0.0000000  -0.0946190   0.3502563), wk =   0.0039062
        k(   96) = (   0.0473095  -0.0473095   0.3502563), wk =   0.0039062
        k(   97) = (   0.2365476   0.0946190   0.4378204), wk =   0.0078125
        k(   98) = (   0.2838571   0.1419286   0.4378204), wk =   0.0078125
        k(   99) = (   0.3311667   0.1892381   0.4378204), wk =   0.0078125
        k(  100) = (   0.3784762   0.2365476   0.4378204), wk =   0.0078125
        k(  101) = (   0.4257857   0.2838571   0.4378204), wk =   0.0078125
        k(  102) = (   0.0000000  -0.1419286   0.4378204), wk =   0.0039062
        k(  103) = (   0.0473095  -0.0946190   0.4378204), wk =   0.0078125
        k(  104) = (   0.2838571   0.0946190   0.5253845), wk =   0.0078125
        k(  105) = (   0.3311667   0.1419286   0.5253845), wk =   0.0078125
        k(  106) = (   0.3784762   0.1892381   0.5253845), wk =   0.0078125
        k(  107) = (   0.4257857   0.2365476   0.5253845), wk =   0.0078125
        k(  108) = (   0.4730952   0.2838571   0.5253845), wk =   0.0039062
        k(  109) = (   0.0000000  -0.1892381   0.5253845), wk =   0.0039062
        k(  110) = (   0.0473095  -0.1419286   0.5253845), wk =   0.0078125
        k(  111) = (   0.0946190  -0.0946190   0.5253845), wk =   0.0039062
        k(  112) = (   0.3311667   0.0946190   0.6129485), wk =   0.0078125
        k(  113) = (   0.3784762   0.1419286   0.6129485), wk =   0.0078125
        k(  114) = (   0.4257857   0.1892381   0.6129485), wk =   0.0078125
        k(  115) = (   0.4730952   0.2365476   0.6129485), wk =   0.0078125
        k(  116) = (   0.0000000  -0.2365476   0.6129485), wk =   0.0039062
        k(  117) = (   0.0473095  -0.1892381   0.6129485), wk =   0.0078125
        k(  118) = (   0.0946190  -0.1419286   0.6129485), wk =   0.0078125
        k(  119) = (   0.3784762   0.0946190   0.7005126), wk =   0.0039062
        k(  120) = (   0.4257857   0.1419286   0.7005126), wk =   0.0078125
        k(  121) = (   0.4730952   0.1892381   0.7005126), wk =   0.0078125
        k(  122) = (   0.5204047   0.2365476   0.7005126), wk =   0.0039062
        k(  123) = (   0.0000000  -0.2838571   0.7005126), wk =   0.0039062
        k(  124) = (   0.0473095  -0.2365476   0.7005126), wk =   0.0078125
        k(  125) = (   0.0946190  -0.1892381   0.7005126), wk =   0.0078125
        k(  126) = (   0.1419286  -0.1419286   0.7005126), wk =   0.0039062
        k(  127) = (  -0.2838571   0.1419286  -0.6129485), wk =   0.0078125
        k(  128) = (  -0.2365476   0.1892381  -0.6129485), wk =   0.0078125
        k(  129) = (  -0.7569524  -0.3311667  -0.6129485), wk =   0.0039062
        k(  130) = (  -0.7096428  -0.2838571  -0.6129485), wk =   0.0078125
        k(  131) = (  -0.6623333  -0.2365476  -0.6129485), wk =   0.0078125
        k(  132) = (  -0.6150238  -0.1892381  -0.6129485), wk =   0.0078125
        k(  133) = (  -0.2365476   0.1419286  -0.5253845), wk =   0.0078125
        k(  134) = (  -0.1892381   0.1892381  -0.5253845), wk =   0.0039062
        k(  135) = (   0.0000000   0.3784762  -0.5253845), wk =   0.0039062
        k(  136) = (  -0.7096428  -0.3311667  -0.5253845), wk =   0.0078125
        k(  137) = (  -0.6623333  -0.2838571  -0.5253845), wk =   0.0078125
        k(  138) = (  -0.6150238  -0.2365476  -0.5253845), wk =   0.0078125
        k(  139) = (  -0.5677143  -0.1892381  -0.5253845), wk =   0.0039062
        k(  140) = (  -0.1892381   0.1419286  -0.4378204), wk =   0.0078125
        k(  141) = (   0.0000000   0.3311667  -0.4378204), wk =   0.0039062
        k(  142) = (   0.0473095   0.3784762  -0.4378204), wk =   0.0078125
        k(  143) = (  -0.6623333  -0.3311667  -0.4378204), wk =   0.0078125
        k(  144) = (  -0.6150238  -0.2838571  -0.4378204), wk =   0.0078125
        k(  145) = (  -0.5677143  -0.2365476  -0.4378204), wk =   0.0078125
        k(  146) = (  -0.1419286   0.1419286  -0.3502563), wk =   0.0039062
        k(  147) = (   0.0000000   0.2838571  -0.3502563), wk =   0.0039062
        k(  148) = (   0.0473095   0.3311667  -0.3502563), wk =   0.0078125
        k(  149) = (   0.0946190   0.3784762  -0.3502563), wk =   0.0078125
        k(  150) = (  -0.6150238  -0.3311667  -0.3502563), wk =   0.0078125
        k(  151) = (  -0.5677143  -0.2838571  -0.3502563), wk =   0.0078125
        k(  152) = (  -0.5204047  -0.2365476  -0.3502563), wk =   0.0039062
        k(  153) = (   0.0000000   0.2365476  -0.2626922), wk =   0.0039062
        k(  154) = (   0.0473095   0.2838571  -0.2626922), wk =   0.0078125
        k(  155) = (   0.0946190   0.3311667  -0.2626922), wk =   0.0078125
        k(  156) = (   0.1419286   0.3784762  -0.2626922), wk =   0.0078125
        k(  157) = (  -0.5677143  -0.3311667  -0.2626922), wk =   0.0078125
        k(  158) = (  -0.5204047  -0.2838571  -0.2626922), wk =   0.0078125
        k(  159) = (   0.0000000   0.1892381  -0.1751282), wk =   0.0039062
        k(  160) = (   0.0473095   0.2365476  -0.1751282), wk =   0.0078125
        k(  161) = (   0.0946190   0.2838571  -0.1751282), wk =   0.0078125
        k(  162) = (   0.1419286   0.3311667  -0.1751282), wk =   0.0078125
        k(  163) = (   0.1892381   0.3784762  -0.1751282), wk =   0.0078125
        k(  164) = (  -0.5204047  -0.3311667  -0.1751282), wk =   0.0078125
        k(  165) = (  -0.4730952  -0.2838571  -0.1751282), wk =   0.0039062
        k(  166) = (   0.0000000   0.1419286  -0.0875641), wk =   0.0039062
        k(  167) = (   0.0473095   0.1892381  -0.0875641), wk =   0.0078125
        k(  168) = (   0.0946190   0.2365476  -0.0875641), wk =   0.0078125
        k(  169) = (   0.1419286   0.2838571  -0.0875641), wk =   0.0078125
        k(  170) = (   0.1892381   0.3311667  -0.0875641), wk =   0.0078125
        k(  171) = (   0.2365476   0.3784762  -0.0875641), wk =   0.0078125
        k(  172) = (  -0.4730952  -0.3311667  -0.0875641), wk =   0.0078125
        k(  173) = (   0.0000000   0.0946190   0.0000000), wk =   0.0019531
        k(  174) = (   0.0473095   0.1419286   0.0000000), wk =   0.0039062
        k(  175) = (   0.0946190   0.1892381   0.0000000), wk =   0.0039062
        k(  176) = (   0.1419286   0.2365476   0.0000000), wk =   0.0039062
        k(  177) = (   0.1892381   0.2838571   0.0000000), wk =   0.0039062
        k(  178) = (   0.2365476   0.3311667   0.0000000), wk =   0.0039062
        k(  179) = (   0.2838571   0.3784762   0.0000000), wk =   0.0039062
        k(  180) = (  -0.4257857  -0.3311667   0.0000000), wk =   0.0019531
        k(  181) = (   0.1892381   0.1892381   0.3502563), wk =   0.0039062
        k(  182) = (   0.2365476   0.2365476   0.3502563), wk =   0.0039062
        k(  183) = (   0.2838571   0.2838571   0.3502563), wk =   0.0039062
        k(  184) = (   0.3311667   0.3311667   0.3502563), wk =   0.0039062
        k(  185) = (   0.3784762   0.3784762   0.3502563), wk =   0.0019531
        k(  186) = (   0.0000000   0.0000000   0.3502563), wk =   0.0009766
        k(  187) = (   0.2365476   0.1892381   0.4378204), wk =   0.0078125
        k(  188) = (   0.2838571   0.2365476   0.4378204), wk =   0.0078125
        k(  189) = (   0.3311667   0.2838571   0.4378204), wk =   0.0078125
        k(  190) = (   0.3784762   0.3311667   0.4378204), wk =   0.0078125
        k(  191) = (   0.0000000  -0.0473095   0.4378204), wk =   0.0039062
        k(  192) = (   0.2838571   0.1892381   0.5253845), wk =   0.0078125
        k(  193) = (   0.3311667   0.2365476   0.5253845), wk =   0.0078125
        k(  194) = (   0.3784762   0.2838571   0.5253845), wk =   0.0078125
        k(  195) = (   0.4257857   0.3311667   0.5253845), wk =   0.0039062
        k(  196) = (   0.0000000  -0.0946190   0.5253845), wk =   0.0039062
        k(  197) = (   0.0473095  -0.0473095   0.5253845), wk =   0.0039062
        k(  198) = (   0.3311667   0.1892381   0.6129485), wk =   0.0078125
        k(  199) = (   0.3784762   0.2365476   0.6129485), wk =   0.0078125
        k(  200) = (   0.4257857   0.2838571   0.6129485), wk =   0.0078125
        k(  201) = (   0.0000000  -0.1419286   0.6129485), wk =   0.0039062
        k(  202) = (   0.0473095  -0.0946190   0.6129485), wk =   0.0078125
        k(  203) = (   0.3784762   0.1892381   0.7005126), wk =   0.0039062
        k(  204) = (   0.4257857   0.2365476   0.7005126), wk =   0.0078125
        k(  205) = (   0.4730952   0.2838571   0.7005126), wk =   0.0039062
        k(  206) = (   0.0000000  -0.1892381   0.7005126), wk =   0.0039062
        k(  207) = (   0.0473095  -0.1419286   0.7005126), wk =   0.0078125
        k(  208) = (   0.0946190  -0.0946190   0.7005126), wk =   0.0039062
        k(  209) = (   0.4730952   0.2365476   0.7880767), wk =   0.0078125
        k(  210) = (   0.0000000  -0.2365476   0.7880767), wk =   0.0039062
        k(  211) = (   0.0473095  -0.1892381   0.7880767), wk =   0.0078125
        k(  212) = (   0.0946190  -0.1419286   0.7880767), wk =   0.0078125
        k(  213) = (  -0.2365476   0.2365476  -0.5253845), wk =   0.0039062
        k(  214) = (  -0.7569524  -0.2838571  -0.5253845), wk =   0.0039062
        k(  215) = (  -0.7096428  -0.2365476  -0.5253845), wk =   0.0078125
        k(  216) = (  -0.6623333  -0.1892381  -0.5253845), wk =   0.0078125
        k(  217) = (  -0.6150238  -0.1419286  -0.5253845), wk =   0.0039062
        k(  218) = (   0.0000000   0.4257857  -0.4378204), wk =   0.0039062
        k(  219) = (  -0.7096428  -0.2838571  -0.4378204), wk =   0.0078125
        k(  220) = (  -0.6623333  -0.2365476  -0.4378204), wk =   0.0078125
        k(  221) = (  -0.6150238  -0.1892381  -0.4378204), wk =   0.0078125
        k(  222) = (   0.0000000   0.3784762  -0.3502563), wk =   0.0039062
        k(  223) = (   0.0473095   0.4257857  -0.3502563), wk =   0.0078125
        k(  224) = (  -0.6623333  -0.2838571  -0.3502563), wk =   0.0078125
        k(  225) = (  -0.6150238  -0.2365476  -0.3502563), wk =   0.0078125
        k(  226) = (  -0.5677143  -0.1892381  -0.3502563), wk =   0.0039062
        k(  227) = (   0.0000000   0.3311667  -0.2626922), wk =   0.0039062
        k(  228) = (   0.0473095   0.3784762  -0.2626922), wk =   0.0078125
        k(  229) = (   0.0946190   0.4257857  -0.2626922), wk =   0.0078125
        k(  230) = (  -0.6150238  -0.2838571  -0.2626922), wk =   0.0078125
        k(  231) = (  -0.5677143  -0.2365476  -0.2626922), wk =   0.0078125
        k(  232) = (   0.0000000   0.2838571  -0.1751282), wk =   0.0039062
        k(  233) = (   0.0473095   0.3311667  -0.1751282), wk =   0.0078125
        k(  234) = (   0.0946190   0.3784762  -0.1751282), wk =   0.0078125
        k(  235) = (   0.1419286   0.4257857  -0.1751282), wk =   0.0078125
        k(  236) = (  -0.5677143  -0.2838571  -0.1751282), wk =   0.0078125
        k(  237) = (  -0.5204047  -0.2365476  -0.1751282), wk =   0.0039062
        k(  238) = (   0.0000000   0.2365476  -0.0875641), wk =   0.0039062
        k(  239) = (   0.0473095   0.2838571  -0.0875641), wk =   0.0078125
        k(  240) = (   0.0946190   0.3311667  -0.0875641), wk =   0.0078125
        k(  241) = (   0.1419286   0.3784762  -0.0875641), wk =   0.0078125
        k(  242) = (   0.1892381   0.4257857  -0.0875641), wk =   0.0078125
        k(  243) = (  -0.5204047  -0.2838571  -0.0875641), wk =   0.0078125
        k(  244) = (   0.0000000   0.1892381   0.0000000), wk =   0.0019531
        k(  245) = (   0.0473095   0.2365476   0.0000000), wk =   0.0039062
        k(  246) = (   0.0946190   0.2838571   0.0000000), wk =   0.0039062
        k(  247) = (   0.1419286   0.3311667   0.0000000), wk =   0.0039062
        k(  248) = (   0.1892381   0.3784762   0.0000000), wk =   0.0039062
        k(  249) = (   0.2365476   0.4257857   0.0000000), wk =   0.0039062
        k(  250) = (  -0.4730952  -0.2838571   0.0000000), wk =   0.0019531
        k(  251) = (   0.2838571   0.2838571   0.5253845), wk =   0.0039062
        k(  252) = (   0.3311667   0.3311667   0.5253845), wk =   0.0039062
        k(  253) = (   0.3784762   0.3784762   0.5253845), wk =   0.0019531
        k(  254) = (   0.0000000   0.0000000   0.5253845), wk =   0.0009766
        k(  255) = (   0.3311667   0.2838571   0.6129485), wk =   0.0078125
        k(  256) = (   0.3784762   0.3311667   0.6129485), wk =   0.0078125
        k(  257) = (   0.0000000  -0.0473095   0.6129485), wk =   0.0039062
        k(  258) = (   0.3784762   0.2838571   0.7005126), wk =   0.0039062
        k(  259) = (   0.4257857   0.3311667   0.7005126), wk =   0.0039062
        k(  260) = (   0.0000000  -0.0946190   0.7005126), wk =   0.0039062
        k(  261) = (   0.0473095  -0.0473095   0.7005126), wk =   0.0039062
        k(  262) = (   0.0000000  -0.1419286   0.7880767), wk =   0.0039062
        k(  263) = (   0.0473095  -0.0946190   0.7880767), wk =   0.0078125
        k(  264) = (   0.0000000  -0.1892381   0.8756408), wk =   0.0039062
        k(  265) = (   0.0473095  -0.1419286   0.8756408), wk =   0.0078125
        k(  266) = (   0.0946190  -0.0946190   0.8756408), wk =   0.0039062
        k(  267) = (  -0.7569524  -0.2365476  -0.4378204), wk =   0.0039062
        k(  268) = (  -0.7096428  -0.1892381  -0.4378204), wk =   0.0078125
        k(  269) = (  -0.6623333  -0.1419286  -0.4378204), wk =   0.0078125
        k(  270) = (   0.0000000   0.4730952  -0.3502563), wk =   0.0039062
        k(  271) = (  -0.7096428  -0.2365476  -0.3502563), wk =   0.0078125
        k(  272) = (  -0.6623333  -0.1892381  -0.3502563), wk =   0.0078125
        k(  273) = (  -0.6150238  -0.1419286  -0.3502563), wk =   0.0039062
        k(  274) = (   0.0000000   0.4257857  -0.2626922), wk =   0.0039062
        k(  275) = (   0.0473095   0.4730952  -0.2626922), wk =   0.0078125
        k(  276) = (  -0.6623333  -0.2365476  -0.2626922), wk =   0.0078125
        k(  277) = (  -0.6150238  -0.1892381  -0.2626922), wk =   0.0078125
        k(  278) = (   0.0000000   0.3784762  -0.1751282), wk =   0.0039062
        k(  279) = (   0.0473095   0.4257857  -0.1751282), wk =   0.0078125
        k(  280) = (   0.0946190   0.4730952  -0.1751282), wk =   0.0078125
        k(  281) = (  -0.6150238  -0.2365476  -0.1751282), wk =   0.0078125
        k(  282) = (  -0.5677143  -0.1892381  -0.1751282), wk =   0.0039062
        k(  283) = (   0.0000000   0.3311667  -0.0875641), wk =   0.0039062
        k(  284) = (   0.0473095   0.3784762  -0.0875641), wk =   0.0078125
        k(  285) = (   0.0946190   0.4257857  -0.0875641), wk =   0.0078125
        k(  286) = (   0.1419286   0.4730952  -0.0875641), wk =   0.0078125
        k(  287) = (  -0.5677143  -0.2365476  -0.0875641), wk =   0.0078125
        k(  288) = (   0.0000000   0.2838571   0.0000000), wk =   0.0019531
        k(  289) = (   0.0473095   0.3311667   0.0000000), wk =   0.0039062
        k(  290) = (   0.0946190   0.3784762   0.0000000), wk =   0.0039062
        k(  291) = (   0.1419286   0.4257857   0.0000000), wk =   0.0039062
        k(  292) = (   0.1892381   0.4730952   0.0000000), wk =   0.0039062
        k(  293) = (  -0.5204047  -0.2365476   0.0000000), wk =   0.0019531
        k(  294) = (   0.3784762   0.3784762   0.7005126), wk =   0.0009766
        k(  295) = (   0.0000000   0.0000000   0.7005126), wk =   0.0009766
        k(  296) = (   0.0000000  -0.0473095   0.7880767), wk =   0.0039062
        k(  297) = (   0.0000000  -0.0946190   0.8756408), wk =   0.0039062
        k(  298) = (   0.0473095  -0.0473095   0.8756408), wk =   0.0039062
        k(  299) = (   0.0000000  -0.1419286   0.9632048), wk =   0.0039062
        k(  300) = (   0.0473095  -0.0946190   0.9632048), wk =   0.0078125
        k(  301) = (  -0.7569524  -0.1892381  -0.3502563), wk =   0.0039062
        k(  302) = (  -0.7096428  -0.1419286  -0.3502563), wk =   0.0078125
        k(  303) = (  -0.6623333  -0.0946190  -0.3502563), wk =   0.0039062
        k(  304) = (   0.0000000   0.5204047  -0.2626922), wk =   0.0039062
        k(  305) = (  -0.7096428  -0.1892381  -0.2626922), wk =   0.0078125
        k(  306) = (  -0.6623333  -0.1419286  -0.2626922), wk =   0.0078125
        k(  307) = (   0.0000000   0.4730952  -0.1751282), wk =   0.0039062
        k(  308) = (   0.0473095   0.5204047  -0.1751282), wk =   0.0078125
        k(  309) = (  -0.6623333  -0.1892381  -0.1751282), wk =   0.0078125
        k(  310) = (  -0.6150238  -0.1419286  -0.1751282), wk =   0.0039062
        k(  311) = (   0.0000000   0.4257857  -0.0875641), wk =   0.0039062
        k(  312) = (   0.0473095   0.4730952  -0.0875641), wk =   0.0078125
        k(  313) = (   0.0946190   0.5204047  -0.0875641), wk =   0.0078125
        k(  314) = (  -0.6150238  -0.1892381  -0.0875641), wk =   0.0078125
        k(  315) = (   0.0000000   0.3784762   0.0000000), wk =   0.0019531
        k(  316) = (   0.0473095   0.4257857   0.0000000), wk =   0.0039062
        k(  317) = (   0.0946190   0.4730952   0.0000000), wk =   0.0039062
        k(  318) = (   0.1419286   0.5204047   0.0000000), wk =   0.0039062
        k(  319) = (  -0.5677143  -0.1892381   0.0000000), wk =   0.0019531
        k(  320) = (   0.0000000   0.0000000   0.8756408), wk =   0.0009766
        k(  321) = (   0.0000000  -0.0473095   0.9632048), wk =   0.0039062
        k(  322) = (   0.0000000  -0.0946190   1.0507689), wk =   0.0039062
        k(  323) = (   0.0473095  -0.0473095   1.0507689), wk =   0.0039062
        k(  324) = (  -0.7569524  -0.1419286  -0.2626922), wk =   0.0039062
        k(  325) = (  -0.7096428  -0.0946190  -0.2626922), wk =   0.0078125
        k(  326) = (   0.0000000   0.5677143  -0.1751282), wk =   0.0039062
        k(  327) = (  -0.7096428  -0.1419286  -0.1751282), wk =   0.0078125
        k(  328) = (  -0.6623333  -0.0946190  -0.1751282), wk =   0.0039062
        k(  329) = (   0.0000000   0.5204047  -0.0875641), wk =   0.0039062
        k(  330) = (   0.0473095   0.5677143  -0.0875641), wk =   0.0078125
        k(  331) = (  -0.6623333  -0.1419286  -0.0875641), wk =   0.0078125
        k(  332) = (   0.0000000   0.4730952   0.0000000), wk =   0.0019531
        k(  333) = (   0.0473095   0.5204047   0.0000000), wk =   0.0039062
        k(  334) = (   0.0946190   0.5677143   0.0000000), wk =   0.0039062
        k(  335) = (  -0.6150238  -0.1419286   0.0000000), wk =   0.0019531
        k(  336) = (   0.0000000   0.0000000   1.0507689), wk =   0.0009766
        k(  337) = (   0.0000000  -0.0473095   1.1383330), wk =   0.0039062
        k(  338) = (  -0.7569524  -0.0946190  -0.1751282), wk =   0.0039062
        k(  339) = (  -0.7096428  -0.0473095  -0.1751282), wk =   0.0039062
        k(  340) = (   0.0000000   0.6150238  -0.0875641), wk =   0.0039062
        k(  341) = (  -0.7096428  -0.0946190  -0.0875641), wk =   0.0078125
        k(  342) = (   0.0000000   0.5677143   0.0000000), wk =   0.0019531
        k(  343) = (   0.0473095   0.6150238   0.0000000), wk =   0.0039062
        k(  344) = (  -0.6623333  -0.0946190   0.0000000), wk =   0.0019531
        k(  345) = (   0.0000000   0.0000000   1.2258971), wk =   0.0009766
        k(  346) = (  -0.7569524  -0.0473095  -0.0875641), wk =   0.0039062
        k(  347) = (   0.0000000   0.6623333   0.0000000), wk =   0.0019531
        k(  348) = (  -0.7096428  -0.0473095   0.0000000), wk =   0.0019531
        k(  349) = (  -0.7569524  -0.7569524  -1.4010252), wk =   0.0004883

                       cryst. coord.
        k(    1) = (   0.0000000   0.0000000   0.0000000), wk =   0.0004883
        k(    2) = (   0.0000000   0.0000000   0.0625000), wk =   0.0019531
        k(    3) = (   0.0000000   0.0000000   0.1250000), wk =   0.0019531
        k(    4) = (   0.0000000   0.0000000   0.1875000), wk =   0.0019531
        k(    5) = (   0.0000000   0.0000000   0.2500000), wk =   0.0019531
        k(    6) = (   0.0000000   0.0000000   0.3125000), wk =   0.0019531
        k(    7) = (   0.0000000   0.0000000   0.3750000), wk =   0.0019531
        k(    8) = (   0.0000000   0.0000000   0.4375000), wk =   0.0019531
        k(    9) = (   0.0000000   0.0000000  -0.5000000), wk =   0.0009766
        k(   10) = (   0.0000000   0.0625000   0.0000000), wk =   0.0039062
        k(   11) = (   0.0000000   0.0625000   0.0625000), wk =   0.0078125
        k(   12) = (   0.0000000   0.0625000   0.1250000), wk =   0.0078125
        k(   13) = (   0.0000000   0.0625000   0.1875000), wk =   0.0078125
        k(   14) = (   0.0000000   0.0625000   0.2500000), wk =   0.0078125
        k(   15) = (   0.0000000   0.0625000   0.3125000), wk =   0.0078125
        k(   16) = (   0.0000000   0.0625000   0.3750000), wk =   0.0078125
        k(   17) = (   0.0000000   0.0625000   0.4375000), wk =   0.0078125
        k(   18) = (   0.0000000   0.1250000   0.0000000), wk =   0.0039062
        k(   19) = (   0.0000000   0.1250000   0.0625000), wk =   0.0078125
        k(   20) = (   0.0000000   0.1250000   0.1250000), wk =   0.0078125
        k(   21) = (   0.0000000   0.1250000   0.1875000), wk =   0.0078125
        k(   22) = (   0.0000000   0.1250000   0.2500000), wk =   0.0078125
        k(   23) = (   0.0000000   0.1250000   0.3125000), wk =   0.0078125
        k(   24) = (   0.0000000   0.1250000   0.3750000), wk =   0.0078125
        k(   25) = (   0.0000000   0.1250000   0.4375000), wk =   0.0039062
        k(   26) = (   0.0000000   0.1250000  -0.0625000), wk =   0.0039062
        k(   27) = (   0.0000000   0.1875000   0.0000000), wk =   0.0039062
        k(   28) = (   0.0000000   0.1875000   0.0625000), wk =   0.0078125
        k(   29) = (   0.0000000   0.1875000   0.1250000), wk =   0.0078125
        k(   30) = (   0.0000000   0.1875000   0.1875000), wk =   0.0078125
        k(   31) = (   0.0000000   0.1875000   0.2500000), wk =   0.0078125
        k(   32) = (   0.0000000   0.1875000   0.3125000), wk =   0.0078125
        k(   33) = (   0.0000000   0.1875000   0.3750000), wk =   0.0078125
        k(   34) = (   0.0000000   0.1875000  -0.1250000), wk =   0.0078125
        k(   35) = (   0.0000000   0.2500000   0.0000000), wk =   0.0039062
        k(   36) = (   0.0000000   0.2500000   0.0625000), wk =   0.0078125
        k(   37) = (   0.0000000   0.2500000   0.1250000), wk =   0.0078125
        k(   38) = (   0.0000000   0.2500000   0.1875000), wk =   0.0078125
        k(   39) = (   0.0000000   0.2500000   0.2500000), wk =   0.0078125
        k(   40) = (   0.0000000   0.2500000   0.3125000), wk =   0.0078125
        k(   41) = (   0.0000000   0.2500000   0.3750000), wk =   0.0039062
        k(   42) = (   0.0000000   0.2500000  -0.1875000), wk =   0.0078125
        k(   43) = (   0.0000000   0.2500000  -0.1250000), wk =   0.0039062
        k(   44) = (   0.0000000   0.3125000   0.0000000), wk =   0.0039062
        k(   45) = (   0.0000000   0.3125000   0.0625000), wk =   0.0078125
        k(   46) = (   0.0000000   0.3125000   0.1250000), wk =   0.0078125
        k(   47) = (   0.0000000   0.3125000   0.1875000), wk =   0.0078125
        k(   48) = (   0.0000000   0.3125000   0.2500000), wk =   0.0078125
        k(   49) = (   0.0000000   0.3125000   0.3125000), wk =   0.0078125
        k(   50) = (   0.0000000   0.3125000  -0.2500000), wk =   0.0078125
        k(   51) = (   0.0000000   0.3125000  -0.1875000), wk =   0.0078125
        k(   52) = (   0.0000000   0.3750000   0.0000000), wk =   0.0039062
        k(   53) = (   0.0000000   0.3750000   0.0625000), wk =   0.0078125
        k(   54) = (   0.0000000   0.3750000   0.1250000), wk =   0.0078125
        k(   55) = (   0.0000000   0.3750000   0.1875000), wk =   0.0078125
        k(   56) = (   0.0000000   0.3750000   0.2500000), wk =   0.0078125
        k(   57) = (   0.0000000   0.3750000   0.3125000), wk =   0.0039062
        k(   58) = (   0.0000000   0.3750000  -0.3125000), wk =   0.0078125
        k(   59) = (   0.0000000   0.3750000  -0.2500000), wk =   0.0078125
        k(   60) = (   0.0000000   0.3750000  -0.1875000), wk =   0.0039062
        k(   61) = (  -0.0000000   0.4375000   0.0000000), wk =   0.0039062
        k(   62) = (  -0.0000000   0.4375000   0.0625000), wk =   0.0078125
        k(   63) = (  -0.0000000   0.4375000   0.1250000), wk =   0.0078125
        k(   64) = (   0.0000000   0.4375000   0.1875000), wk =   0.0078125
        k(   65) = (  -0.0000000   0.4375000   0.2500000), wk =   0.0078125
        k(   66) = (  -0.0000000   0.4375000  -0.3750000), wk =   0.0078125
        k(   67) = (  -0.0000000   0.4375000  -0.3125000), wk =   0.0078125
        k(   68) = (  -0.0000000   0.4375000  -0.2500000), wk =   0.0078125
        k(   69) = (   0.0000000  -0.5000000   0.0000000), wk =   0.0019531
        k(   70) = (   0.0000000  -0.5000000   0.0625000), wk =   0.0078125
        k(   71) = (   0.0000000  -0.5000000   0.1250000), wk =   0.0078125
        k(   72) = (   0.0000000  -0.5000000   0.1875000), wk =   0.0078125
        k(   73) = (   0.0000000  -0.5000000   0.2500000), wk =   0.0039062
        k(   74) = (   0.0625000   0.0625000   0.0625000), wk =   0.0039062
        k(   75) = (   0.0625000   0.0625000   0.1250000), wk =   0.0039062
        k(   76) = (   0.0625000   0.0625000   0.1875000), wk =   0.0039062
        k(   77) = (   0.0625000   0.0625000   0.2500000), wk =   0.0039062
        k(   78) = (   0.0625000   0.0625000   0.3125000), wk =   0.0039062
        k(   79) = (   0.0625000   0.0625000   0.3750000), wk =   0.0039062
        k(   80) = (   0.0625000   0.0625000   0.4375000), wk =   0.0019531
        k(   81) = (   0.0625000   0.0625000  -0.0625000), wk =   0.0009766
        k(   82) = (   0.0625000   0.1250000   0.0625000), wk =   0.0078125
        k(   83) = (   0.0625000   0.1250000   0.1250000), wk =   0.0078125
        k(   84) = (   0.0625000   0.1250000   0.1875000), wk =   0.0078125
        k(   85) = (   0.0625000   0.1250000   0.2500000), wk =   0.0078125
        k(   86) = (   0.0625000   0.1250000   0.3125000), wk =   0.0078125
        k(   87) = (   0.0625000   0.1250000   0.3750000), wk =   0.0078125
        k(   88) = (   0.0625000   0.1250000  -0.1250000), wk =   0.0039062
        k(   89) = (   0.0625000   0.1875000   0.0625000), wk =   0.0078125
        k(   90) = (   0.0625000   0.1875000   0.1250000), wk =   0.0078125
        k(   91) = (   0.0625000   0.1875000   0.1875000), wk =   0.0078125
        k(   92) = (   0.0625000   0.1875000   0.2500000), wk =   0.0078125
        k(   93) = (   0.0625000   0.1875000   0.3125000), wk =   0.0078125
        k(   94) = (   0.0625000   0.1875000   0.3750000), wk =   0.0039062
        k(   95) = (   0.0625000   0.1875000  -0.1875000), wk =   0.0039062
        k(   96) = (   0.0625000   0.1875000  -0.1250000), wk =   0.0039062
        k(   97) = (   0.0625000   0.2500000   0.0625000), wk =   0.0078125
        k(   98) = (   0.0625000   0.2500000   0.1250000), wk =   0.0078125
        k(   99) = (   0.0625000   0.2500000   0.1875000), wk =   0.0078125
        k(  100) = (   0.0625000   0.2500000   0.2500000), wk =   0.0078125
        k(  101) = (   0.0625000   0.2500000   0.3125000), wk =   0.0078125
        k(  102) = (   0.0625000   0.2500000  -0.2500000), wk =   0.0039062
        k(  103) = (   0.0625000   0.2500000  -0.1875000), wk =   0.0078125
        k(  104) = (   0.0625000   0.3125000   0.0625000), wk =   0.0078125
        k(  105) = (   0.0625000   0.3125000   0.1250000), wk =   0.0078125
        k(  106) = (   0.0625000   0.3125000   0.1875000), wk =   0.0078125
        k(  107) = (   0.0625000   0.3125000   0.2500000), wk =   0.0078125
        k(  108) = (   0.0625000   0.3125000   0.3125000), wk =   0.0039062
        k(  109) = (   0.0625000   0.3125000  -0.3125000), wk =   0.0039062
        k(  110) = (   0.0625000   0.3125000  -0.2500000), wk =   0.0078125
        k(  111) = (   0.0625000   0.3125000  -0.1875000), wk =   0.0039062
        k(  112) = (   0.0625000   0.3750000   0.0625000), wk =   0.0078125
        k(  113) = (   0.0625000   0.3750000   0.1250000), wk =   0.0078125
        k(  114) = (   0.0625000   0.3750000   0.1875000), wk =   0.0078125
        k(  115) = (   0.0625000   0.3750000   0.2500000), wk =   0.0078125
        k(  116) = (   0.0625000   0.3750000  -0.3750000), wk =   0.0039062
        k(  117) = (   0.0625000   0.3750000  -0.3125000), wk =   0.0078125
        k(  118) = (   0.0625000   0.3750000  -0.2500000), wk =   0.0078125
        k(  119) = (   0.0625000   0.4375000   0.0625000), wk =   0.0039062
        k(  120) = (   0.0625000   0.4375000   0.1250000), wk =   0.0078125
        k(  121) = (   0.0625000   0.4375000   0.1875000), wk =   0.0078125
        k(  122) = (   0.0625000   0.4375000   0.2500000), wk =   0.0039062
        k(  123) = (   0.0625000   0.4375000  -0.4375000), wk =   0.0039062
        k(  124) = (   0.0625000   0.4375000  -0.3750000), wk =   0.0078125
        k(  125) = (   0.0625000   0.4375000  -0.3125000), wk =   0.0078125
        k(  126) = (   0.0625000   0.4375000  -0.2500000), wk =   0.0039062
        k(  127) = (   0.0625000  -0.5000000   0.1250000), wk =   0.0078125
        k(  128) = (   0.0625000  -0.5000000   0.1875000), wk =   0.0078125
        k(  129) = (   0.0625000  -0.5000000  -0.5000000), wk =   0.0039062
        k(  130) = (   0.0625000  -0.5000000  -0.4375000), wk =   0.0078125
        k(  131) = (   0.0625000  -0.5000000  -0.3750000), wk =   0.0078125
        k(  132) = (   0.0625000  -0.5000000  -0.3125000), wk =   0.0078125
        k(  133) = (   0.0625000  -0.4375000   0.1250000), wk =   0.0078125
        k(  134) = (   0.0625000  -0.4375000   0.1875000), wk =   0.0039062
        k(  135) = (   0.0625000  -0.4375000   0.4375000), wk =   0.0039062
        k(  136) = (   0.0625000  -0.4375000  -0.5000000), wk =   0.0078125
        k(  137) = (   0.0625000  -0.4375000  -0.4375000), wk =   0.0078125
        k(  138) = (   0.0625000  -0.4375000  -0.3750000), wk =   0.0078125
        k(  139) = (   0.0625000  -0.4375000  -0.3125000), wk =   0.0039062
        k(  140) = (   0.0625000  -0.3750000   0.1250000), wk =   0.0078125
        k(  141) = (   0.0625000  -0.3750000   0.3750000), wk =   0.0039062
        k(  142) = (   0.0625000  -0.3750000   0.4375000), wk =   0.0078125
        k(  143) = (   0.0625000  -0.3750000  -0.5000000), wk =   0.0078125
        k(  144) = (   0.0625000  -0.3750000  -0.4375000), wk =   0.0078125
        k(  145) = (   0.0625000  -0.3750000  -0.3750000), wk =   0.0078125
        k(  146) = (   0.0625000  -0.3125000   0.1250000), wk =   0.0039062
        k(  147) = (   0.0625000  -0.3125000   0.3125000), wk =   0.0039062
        k(  148) = (   0.0625000  -0.3125000   0.3750000), wk =   0.0078125
        k(  149) = (   0.0625000  -0.3125000   0.4375000), wk =   0.0078125
        k(  150) = (   0.0625000  -0.3125000  -0.5000000), wk =   0.0078125
        k(  151) = (   0.0625000  -0.3125000  -0.4375000), wk =   0.0078125
        k(  152) = (   0.0625000  -0.3125000  -0.3750000), wk =   0.0039062
        k(  153) = (   0.0625000  -0.2500000   0.2500000), wk =   0.0039062
        k(  154) = (   0.0625000  -0.2500000   0.3125000), wk =   0.0078125
        k(  155) = (   0.0625000  -0.2500000   0.3750000), wk =   0.0078125
        k(  156) = (   0.0625000  -0.2500000   0.4375000), wk =   0.0078125
        k(  157) = (   0.0625000  -0.2500000  -0.5000000), wk =   0.0078125
        k(  158) = (   0.0625000  -0.2500000  -0.4375000), wk =   0.0078125
        k(  159) = (   0.0625000  -0.1875000   0.1875000), wk =   0.0039062
        k(  160) = (   0.0625000  -0.1875000   0.2500000), wk =   0.0078125
        k(  161) = (   0.0625000  -0.1875000   0.3125000), wk =   0.0078125
        k(  162) = (   0.0625000  -0.1875000   0.3750000), wk =   0.0078125
        k(  163) = (   0.0625000  -0.1875000   0.4375000), wk =   0.0078125
        k(  164) = (   0.0625000  -0.1875000  -0.5000000), wk =   0.0078125
        k(  165) = (   0.0625000  -0.1875000  -0.4375000), wk =   0.0039062
        k(  166) = (   0.0625000  -0.1250000   0.1250000), wk =   0.0039062
        k(  167) = (   0.0625000  -0.1250000   0.1875000), wk =   0.0078125
        k(  168) = (   0.0625000  -0.1250000   0.2500000), wk =   0.0078125
        k(  169) = (   0.0625000  -0.1250000   0.3125000), wk =   0.0078125
        k(  170) = (   0.0625000  -0.1250000   0.3750000), wk =   0.0078125
        k(  171) = (   0.0625000  -0.1250000   0.4375000), wk =   0.0078125
        k(  172) = (   0.0625000  -0.1250000  -0.5000000), wk =   0.0078125
        k(  173) = (   0.0625000  -0.0625000   0.0625000), wk =   0.0019531
        k(  174) = (   0.0625000  -0.0625000   0.1250000), wk =   0.0039062
        k(  175) = (   0.0625000  -0.0625000   0.1875000), wk =   0.0039062
        k(  176) = (   0.0625000  -0.0625000   0.2500000), wk =   0.0039062
        k(  177) = (   0.0625000  -0.0625000   0.3125000), wk =   0.0039062
        k(  178) = (   0.0625000  -0.0625000   0.3750000), wk =   0.0039062
        k(  179) = (   0.0625000  -0.0625000   0.4375000), wk =   0.0039062
        k(  180) = (   0.0625000  -0.0625000  -0.5000000), wk =   0.0019531
        k(  181) = (   0.1250000   0.1250000   0.1250000), wk =   0.0039062
        k(  182) = (   0.1250000   0.1250000   0.1875000), wk =   0.0039062
        k(  183) = (   0.1250000   0.1250000   0.2500000), wk =   0.0039062
        k(  184) = (   0.1250000   0.1250000   0.3125000), wk =   0.0039062
        k(  185) = (   0.1250000   0.1250000   0.3750000), wk =   0.0019531
        k(  186) = (   0.1250000   0.1250000  -0.1250000), wk =   0.0009766
        k(  187) = (   0.1250000   0.1875000   0.1250000), wk =   0.0078125
        k(  188) = (   0.1250000   0.1875000   0.1875000), wk =   0.0078125
        k(  189) = (   0.1250000   0.1875000   0.2500000), wk =   0.0078125
        k(  190) = (   0.1250000   0.1875000   0.3125000), wk =   0.0078125
        k(  191) = (   0.1250000   0.1875000  -0.1875000), wk =   0.0039062
        k(  192) = (   0.1250000   0.2500000   0.1250000), wk =   0.0078125
        k(  193) = (   0.1250000   0.2500000   0.1875000), wk =   0.0078125
        k(  194) = (   0.1250000   0.2500000   0.2500000), wk =   0.0078125
        k(  195) = (   0.1250000   0.2500000   0.3125000), wk =   0.0039062
        k(  196) = (   0.1250000   0.2500000  -0.2500000), wk =   0.0039062
        k(  197) = (   0.1250000   0.2500000  -0.1875000), wk =   0.0039062
        k(  198) = (   0.1250000   0.3125000   0.1250000), wk =   0.0078125
        k(  199) = (   0.1250000   0.3125000   0.1875000), wk =   0.0078125
        k(  200) = (   0.1250000   0.3125000   0.2500000), wk =   0.0078125
        k(  201) = (   0.1250000   0.3125000  -0.3125000), wk =   0.0039062
        k(  202) = (   0.1250000   0.3125000  -0.2500000), wk =   0.0078125
        k(  203) = (   0.1250000   0.3750000   0.1250000), wk =   0.0039062
        k(  204) = (   0.1250000   0.3750000   0.1875000), wk =   0.0078125
        k(  205) = (   0.1250000   0.3750000   0.2500000), wk =   0.0039062
        k(  206) = (   0.1250000   0.3750000  -0.3750000), wk =   0.0039062
        k(  207) = (   0.1250000   0.3750000  -0.3125000), wk =   0.0078125
        k(  208) = (   0.1250000   0.3750000  -0.2500000), wk =   0.0039062
        k(  209) = (   0.1250000   0.4375000   0.1875000), wk =   0.0078125
        k(  210) = (   0.1250000   0.4375000  -0.4375000), wk =   0.0039062
        k(  211) = (   0.1250000   0.4375000  -0.3750000), wk =   0.0078125
        k(  212) = (   0.1250000   0.4375000  -0.3125000), wk =   0.0078125
        k(  213) = (   0.1250000  -0.5000000   0.1875000), wk =   0.0039062
        k(  214) = (   0.1250000  -0.5000000  -0.5000000), wk =   0.0039062
        k(  215) = (   0.1250000  -0.5000000  -0.4375000), wk =   0.0078125
        k(  216) = (   0.1250000  -0.5000000  -0.3750000), wk =   0.0078125
        k(  217) = (   0.1250000  -0.5000000  -0.3125000), wk =   0.0039062
        k(  218) = (   0.1250000  -0.4375000   0.4375000), wk =   0.0039062
        k(  219) = (   0.1250000  -0.4375000  -0.5000000), wk =   0.0078125
        k(  220) = (   0.1250000  -0.4375000  -0.4375000), wk =   0.0078125
        k(  221) = (   0.1250000  -0.4375000  -0.3750000), wk =   0.0078125
        k(  222) = (   0.1250000  -0.3750000   0.3750000), wk =   0.0039062
        k(  223) = (   0.1250000  -0.3750000   0.4375000), wk =   0.0078125
        k(  224) = (   0.1250000  -0.3750000  -0.5000000), wk =   0.0078125
        k(  225) = (   0.1250000  -0.3750000  -0.4375000), wk =   0.0078125
        k(  226) = (   0.1250000  -0.3750000  -0.3750000), wk =   0.0039062
        k(  227) = (   0.1250000  -0.3125000   0.3125000), wk =   0.0039062
        k(  228) = (   0.1250000  -0.3125000   0.3750000), wk =   0.0078125
        k(  229) = (   0.1250000  -0.3125000   0.4375000), wk =   0.0078125
        k(  230) = (   0.1250000  -0.3125000  -0.5000000), wk =   0.0078125
        k(  231) = (   0.1250000  -0.3125000  -0.4375000), wk =   0.0078125
        k(  232) = (   0.1250000  -0.2500000   0.2500000), wk =   0.0039062
        k(  233) = (   0.1250000  -0.2500000   0.3125000), wk =   0.0078125
        k(  234) = (   0.1250000  -0.2500000   0.3750000), wk =   0.0078125
        k(  235) = (   0.1250000  -0.2500000   0.4375000), wk =   0.0078125
        k(  236) = (   0.1250000  -0.2500000  -0.5000000), wk =   0.0078125
        k(  237) = (   0.1250000  -0.2500000  -0.4375000), wk =   0.0039062
        k(  238) = (   0.1250000  -0.1875000   0.1875000), wk =   0.0039062
        k(  239) = (   0.1250000  -0.1875000   0.2500000), wk =   0.0078125
        k(  240) = (   0.1250000  -0.1875000   0.3125000), wk =   0.0078125
        k(  241) = (   0.1250000  -0.1875000   0.3750000), wk =   0.0078125
        k(  242) = (   0.1250000  -0.1875000   0.4375000), wk =   0.0078125
        k(  243) = (   0.1250000  -0.1875000  -0.5000000), wk =   0.0078125
        k(  244) = (   0.1250000  -0.1250000   0.1250000), wk =   0.0019531
        k(  245) = (   0.1250000  -0.1250000   0.1875000), wk =   0.0039062
        k(  246) = (   0.1250000  -0.1250000   0.2500000), wk =   0.0039062
        k(  247) = (   0.1250000  -0.1250000   0.3125000), wk =   0.0039062
        k(  248) = (   0.1250000  -0.1250000   0.3750000), wk =   0.0039062
        k(  249) = (   0.1250000  -0.1250000   0.4375000), wk =   0.0039062
        k(  250) = (   0.1250000  -0.1250000  -0.5000000), wk =   0.0019531
        k(  251) = (   0.1875000   0.1875000   0.1875000), wk =   0.0039062
        k(  252) = (   0.1875000   0.1875000   0.2500000), wk =   0.0039062
        k(  253) = (   0.1875000   0.1875000   0.3125000), wk =   0.0019531
        k(  254) = (   0.1875000   0.1875000  -0.1875000), wk =   0.0009766
        k(  255) = (   0.1875000   0.2500000   0.1875000), wk =   0.0078125
        k(  256) = (   0.1875000   0.2500000   0.2500000), wk =   0.0078125
        k(  257) = (   0.1875000   0.2500000  -0.2500000), wk =   0.0039062
        k(  258) = (   0.1875000   0.3125000   0.1875000), wk =   0.0039062
        k(  259) = (   0.1875000   0.3125000   0.2500000), wk =   0.0039062
        k(  260) = (   0.1875000   0.3125000  -0.3125000), wk =   0.0039062
        k(  261) = (   0.1875000   0.3125000  -0.2500000), wk =   0.0039062
        k(  262) = (   0.1875000   0.3750000  -0.3750000), wk =   0.0039062
        k(  263) = (   0.1875000   0.3750000  -0.3125000), wk =   0.0078125
        k(  264) = (   0.1875000   0.4375000  -0.4375000), wk =   0.0039062
        k(  265) = (   0.1875000   0.4375000  -0.3750000), wk =   0.0078125
        k(  266) = (   0.1875000   0.4375000  -0.3125000), wk =   0.0039062
        k(  267) = (   0.1875000  -0.5000000  -0.5000000), wk =   0.0039062
        k(  268) = (   0.1875000  -0.5000000  -0.4375000), wk =   0.0078125
        k(  269) = (   0.1875000  -0.5000000  -0.3750000), wk =   0.0078125
        k(  270) = (   0.1875000  -0.4375000   0.4375000), wk =   0.0039062
        k(  271) = (   0.1875000  -0.4375000  -0.5000000), wk =   0.0078125
        k(  272) = (   0.1875000  -0.4375000  -0.4375000), wk =   0.0078125
        k(  273) = (   0.1875000  -0.4375000  -0.3750000), wk =   0.0039062
        k(  274) = (   0.1875000  -0.3750000   0.3750000), wk =   0.0039062
        k(  275) = (   0.1875000  -0.3750000   0.4375000), wk =   0.0078125
        k(  276) = (   0.1875000  -0.3750000  -0.5000000), wk =   0.0078125
        k(  277) = (   0.1875000  -0.3750000  -0.4375000), wk =   0.0078125
        k(  278) = (   0.1875000  -0.3125000   0.3125000), wk =   0.0039062
        k(  279) = (   0.1875000  -0.3125000   0.3750000), wk =   0.0078125
        k(  280) = (   0.1875000  -0.3125000   0.4375000), wk =   0.0078125
        k(  281) = (   0.1875000  -0.3125000  -0.5000000), wk =   0.0078125
        k(  282) = (   0.1875000  -0.3125000  -0.4375000), wk =   0.0039062
        k(  283) = (   0.1875000  -0.2500000   0.2500000), wk =   0.0039062
        k(  284) = (   0.1875000  -0.2500000   0.3125000), wk =   0.0078125
        k(  285) = (   0.1875000  -0.2500000   0.3750000), wk =   0.0078125
        k(  286) = (   0.1875000  -0.2500000   0.4375000), wk =   0.0078125
        k(  287) = (   0.1875000  -0.2500000  -0.5000000), wk =   0.0078125
        k(  288) = (   0.1875000  -0.1875000   0.1875000), wk =   0.0019531
        k(  289) = (   0.1875000  -0.1875000   0.2500000), wk =   0.0039062
        k(  290) = (   0.1875000  -0.1875000   0.3125000), wk =   0.0039062
        k(  291) = (   0.1875000  -0.1875000   0.3750000), wk =   0.0039062
        k(  292) = (   0.1875000  -0.1875000   0.4375000), wk =   0.0039062
        k(  293) = (   0.1875000  -0.1875000  -0.5000000), wk =   0.0019531
        k(  294) = (   0.2500000   0.2500000   0.2500000), wk =   0.0009766
        k(  295) = (   0.2500000   0.2500000  -0.2500000), wk =   0.0009766
        k(  296) = (   0.2500000   0.3125000  -0.3125000), wk =   0.0039062
        k(  297) = (   0.2500000   0.3750000  -0.3750000), wk =   0.0039062
        k(  298) = (   0.2500000   0.3750000  -0.3125000), wk =   0.0039062
        k(  299) = (   0.2500000   0.4375000  -0.4375000), wk =   0.0039062
        k(  300) = (   0.2500000   0.4375000  -0.3750000), wk =   0.0078125
        k(  301) = (   0.2500000  -0.5000000  -0.5000000), wk =   0.0039062
        k(  302) = (   0.2500000  -0.5000000  -0.4375000), wk =   0.0078125
        k(  303) = (   0.2500000  -0.5000000  -0.3750000), wk =   0.0039062
        k(  304) = (   0.2500000  -0.4375000   0.4375000), wk =   0.0039062
        k(  305) = (   0.2500000  -0.4375000  -0.5000000), wk =   0.0078125
        k(  306) = (   0.2500000  -0.4375000  -0.4375000), wk =   0.0078125
        k(  307) = (   0.2500000  -0.3750000   0.3750000), wk =   0.0039062
        k(  308) = (   0.2500000  -0.3750000   0.4375000), wk =   0.0078125
        k(  309) = (   0.2500000  -0.3750000  -0.5000000), wk =   0.0078125
        k(  310) = (   0.2500000  -0.3750000  -0.4375000), wk =   0.0039062
        k(  311) = (   0.2500000  -0.3125000   0.3125000), wk =   0.0039062
        k(  312) = (   0.2500000  -0.3125000   0.3750000), wk =   0.0078125
        k(  313) = (   0.2500000  -0.3125000   0.4375000), wk =   0.0078125
        k(  314) = (   0.2500000  -0.3125000  -0.5000000), wk =   0.0078125
        k(  315) = (   0.2500000  -0.2500000   0.2500000), wk =   0.0019531
        k(  316) = (   0.2500000  -0.2500000   0.3125000), wk =   0.0039062
        k(  317) = (   0.2500000  -0.2500000   0.3750000), wk =   0.0039062
        k(  318) = (   0.2500000  -0.2500000   0.4375000), wk =   0.0039062
        k(  319) = (   0.2500000  -0.2500000  -0.5000000), wk =   0.0019531
        k(  320) = (   0.3125000   0.3125000  -0.3125000), wk =   0.0009766
        k(  321) = (   0.3125000   0.3750000  -0.3750000), wk =   0.0039062
        k(  322) = (   0.3125000   0.4375000  -0.4375000), wk =   0.0039062
        k(  323) = (   0.3125000   0.4375000  -0.3750000), wk =   0.0039062
        k(  324) = (   0.3125000  -0.5000000  -0.5000000), wk =   0.0039062
        k(  325) = (   0.3125000  -0.5000000  -0.4375000), wk =   0.0078125
        k(  326) = (   0.3125000  -0.4375000   0.4375000), wk =   0.0039062
        k(  327) = (   0.3125000  -0.4375000  -0.5000000), wk =   0.0078125
        k(  328) = (   0.3125000  -0.4375000  -0.4375000), wk =   0.0039062
        k(  329) = (   0.3125000  -0.3750000   0.3750000), wk =   0.0039062
        k(  330) = (   0.3125000  -0.3750000   0.4375000), wk =   0.0078125
        k(  331) = (   0.3125000  -0.3750000  -0.5000000), wk =   0.0078125
        k(  332) = (   0.3125000  -0.3125000   0.3125000), wk =   0.0019531
        k(  333) = (   0.3125000  -0.3125000   0.3750000), wk =   0.0039062
        k(  334) = (   0.3125000  -0.3125000   0.4375000), wk =   0.0039062
        k(  335) = (   0.3125000  -0.3125000  -0.5000000), wk =   0.0019531
        k(  336) = (   0.3750000   0.3750000  -0.3750000), wk =   0.0009766
        k(  337) = (   0.3750000   0.4375000  -0.4375000), wk =   0.0039062
        k(  338) = (   0.3750000  -0.5000000  -0.5000000), wk =   0.0039062
        k(  339) = (   0.3750000  -0.5000000  -0.4375000), wk =   0.0039062
        k(  340) = (   0.3750000  -0.4375000   0.4375000), wk =   0.0039062
        k(  341) = (   0.3750000  -0.4375000  -0.5000000), wk =   0.0078125
        k(  342) = (   0.3750000  -0.3750000   0.3750000), wk =   0.0019531
        k(  343) = (   0.3750000  -0.3750000   0.4375000), wk =   0.0039062
        k(  344) = (   0.3750000  -0.3750000  -0.5000000), wk =   0.0019531
        k(  345) = (   0.4375000   0.4375000  -0.4375000), wk =   0.0009766
        k(  346) = (   0.4375000  -0.5000000  -0.5000000), wk =   0.0039062
        k(  347) = (   0.4375000  -0.4375000   0.4375000), wk =   0.0019531
        k(  348) = (   0.4375000  -0.4375000  -0.5000000), wk =   0.0019531
        k(  349) = (  -0.5000000  -0.5000000  -0.5000000), wk =   0.0004883

     Dense  grid:    98323 G-vectors     FFT dimensions: (  72,  72,  72)

     Smooth grid:    34789 G-vectors     FFT dimensions: (  48,  48,  48)

     Dynamical RAM for                 wfc:       1.19 MB

     Dynamical RAM for     wfc (w. buffer):       5.97 MB

     Dynamical RAM for           str. fact:       1.50 MB

     Dynamical RAM for           local pot:       0.00 MB

     Dynamical RAM for          nlocal pot:       2.39 MB

     Dynamical RAM for                qrad:       2.69 MB

     Dynamical RAM for          rho,v,vnew:      13.04 MB

     Dynamical RAM for               rhoin:       4.35 MB

     Dynamical RAM for            rho*nmix:      24.00 MB

     Dynamical RAM for           G-vectors:       5.89 MB

     Dynamical RAM for          h,s,v(r/c):       0.24 MB

     Dynamical RAM for          <psi|beta>:       0.01 MB

     Dynamical RAM for                 psi:       4.77 MB

     Dynamical RAM for                hpsi:       4.77 MB

     Dynamical RAM for                spsi:       4.77 MB

     Dynamical RAM for      wfcinit/wfcrot:       2.39 MB

     Dynamical RAM for           addusdens:       4.42 MB

     Dynamical RAM for          addusforce:       3.73 MB

     Dynamical RAM for         addusstress:       3.88 MB

     Estimated static dynamical RAM per process >      77.07 MB

     Estimated max dynamical RAM per process >      91.64 MB

     Estimated total dynamical RAM >       8.59 GB

     Initial potential from superposition of free atoms

     starting charge   25.99992, renormalised to   28.00000
     Starting wfcs are   18 randomized atomic wfcs

     total cpu time spent up to now is        1.2 secs

     Self-consistent Calculation

     iteration #  1     ecut=    80.00 Ry     beta= 0.70
     Davidson diagonalization with overlap
     ethr =  1.00E-02,  avg # of iterations =  3.5

     total cpu time spent up to now is        2.7 secs

     total energy              =    -316.91282861 Ry
     Harris-Foulkes estimate   =    -318.87234220 Ry
     estimated scf accuracy    <       2.39160870 Ry

     iteration #  2     ecut=    80.00 Ry     beta= 0.70
     Davidson diagonalization with overlap
     ethr =  8.54E-03,  avg # of iterations =  2.8

     total cpu time spent up to now is        3.9 secs

     total energy              =    -317.76032816 Ry
     Harris-Foulkes estimate   =    -318.04032123 Ry
     estimated scf accuracy    <       0.40673441 Ry

     iteration #  3     ecut=    80.00 Ry     beta= 0.70
     Davidson diagonalization with overlap
     ethr =  1.45E-03,  avg # of iterations =  2.0

     total cpu time spent up to now is        5.1 secs

     total energy              =    -317.84338521 Ry
     Harris-Foulkes estimate   =    -317.84457276 Ry
     estimated scf accuracy    <       0.00198401 Ry

     iteration #  4     ecut=    80.00 Ry     beta= 0.70
     Davidson diagonalization with overlap
     ethr =  7.09E-06,  avg # of iterations =  3.4

     total cpu time spent up to now is        6.4 secs

     total energy              =    -317.84388466 Ry
     Harris-Foulkes estimate   =    -317.84395478 Ry
     estimated scf accuracy    <       0.00010227 Ry

     iteration #  5     ecut=    80.00 Ry     beta= 0.70
     Davidson diagonalization with overlap
     ethr =  3.65E-07,  avg # of iterations =  2.1

     total cpu time spent up to now is        7.7 secs

     total energy              =    -317.84391001 Ry
     Harris-Foulkes estimate   =    -317.84390998 Ry
     estimated scf accuracy    <       0.00000005 Ry

     iteration #  6     ecut=    80.00 Ry     beta= 0.70
     Davidson diagonalization with overlap
     ethr =  1.85E-10,  avg # of iterations =  4.0

     total cpu time spent up to now is        9.3 secs

     total energy              =    -317.84391028 Ry
     Harris-Foulkes estimate   =    -317.84391027 Ry
     estimated scf accuracy    <          1.7E-09 Ry

     iteration #  7     ecut=    80.00 Ry     beta= 0.70
     Davidson diagonalization with overlap
     ethr =  6.20E-12,  avg # of iterations =  2.0

     total cpu time spent up to now is       10.4 secs

     total energy              =    -317.84391028 Ry
     Harris-Foulkes estimate   =    -317.84391028 Ry
     estimated scf accuracy    <          5.7E-11 Ry

     iteration #  8     ecut=    80.00 Ry     beta= 0.70
     Davidson diagonalization with overlap
     ethr =  2.05E-13,  avg # of iterations =  2.9

     total cpu time spent up to now is       11.7 secs

     total energy              =    -317.84391028 Ry
     Harris-Foulkes estimate   =    -317.84391028 Ry
     estimated scf accuracy    <          7.4E-12 Ry

     iteration #  9     ecut=    80.00 Ry     beta= 0.70
     Davidson diagonalization with overlap
     ethr =  1.00E-13,  avg # of iterations =  2.3

     total cpu time spent up to now is       12.9 secs

     total energy              =    -317.84391028 Ry
     Harris-Foulkes estimate   =    -317.84391028 Ry
     estimated scf accuracy    <          7.8E-13 Ry

     iteration # 10     ecut=    80.00 Ry     beta= 0.70
     Davidson diagonalization with overlap
     ethr =  1.00E-13,  avg # of iterations =  1.0

     total cpu time spent up to now is       13.8 secs

     End of self-consistent calculation

          k = 0.0000 0.0000 0.0000 (  4313 PWs)   bands (ev):

   -10.7341 -10.6528 -10.6033 -10.5963 -10.4267 -10.4267 -10.4161 -10.4161
   -10.3296 -10.2158  -0.4095   7.1882   8.8199   8.8199  13.7746  17.1355
    17.1355  18.0752

     occupation numbers 
     1.0000   1.0000   1.0000   1.0000   1.0000   1.0000   1.0000   1.0000
     1.0000   1.0000   1.0000   1.0000   1.0000   1.0000   0.0000   0.0000
     0.0000   0.0000

          k = 0.0473 0.0473 0.0000 (  4327 PWs)   bands (ev):

   -10.7307 -10.6533 -10.6005 -10.5984 -10.4283 -10.4250 -10.4153 -10.4150
   -10.3316 -10.2193  -0.3740   6.8402   8.8625   9.0972  13.9428  16.7640
    16.9176  18.0215

     occupation numbers 
     1.0000   1.0000   1.0000   1.0000   1.0000   1.0000   1.0000   1.0000
     1.0000   1.0000   1.0000   1.0000   1.0000   1.0000   0.0000   0.0000
     0.0000   0.0000

          k = 0.0946 0.0946 0.0000 (  4342 PWs)   bands (ev):

   -10.7205 -10.6548 -10.6043 -10.5919 -10.4333 -10.4201 -10.4130 -10.4114
   -10.3376 -10.2297  -0.2674   6.1383   8.9900   9.5970  14.4373  16.0305
    16.3780  17.8795

     occupation numbers 
     1.0000   1.0000   1.0000   1.0000   1.0000   1.0000   1.0000   1.0000
     1.0000   1.0000   1.0000   1.0000   1.0000   1.0000   0.0000   0.0000
     0.0000   0.0000

          k = 0.1419 0.1419 0.0000 (  4346 PWs)   bands (ev):

   -10.7038 -10.6568 -10.6125 -10.5782 -10.4420 -10.4133 -10.4100 -10.4056
   -10.3472 -10.2456  -0.0897   5.3541   9.2012  10.0835  15.2063  15.2220
    15.6954  17.6920

     occupation numbers 
     1.0000   1.0000   1.0000   1.0000   1.0000   1.0000   1.0000   1.0000
     1.0000   1.0000   1.0000   1.0000   1.0000   1.0000   0.0000   0.0000
     0.0000   0.0000

          k = 0.1892 0.1892 0.0000 (  4342 PWs)   bands (ev):

   -10.6814 -10.6586 -10.6221 -10.5599 -10.4550 -10.4079 -10.4057 -10.3975
   -10.3593 -10.2654   0.1590   4.5680   9.4944  10.5317  14.3737  14.9765
    16.2400  17.4997

     occupation numbers 
     1.0000   1.0000   1.0000   1.0000   1.0000   1.0000   1.0000   1.0000
     1.0000   1.0000   1.0000   1.0000   1.0000   1.0066   0.0000   0.0000
     0.0000   0.0000

          k = 0.2365 0.2365 0.0000 (  4358 PWs)   bands (ev):

   -10.6597 -10.6540 -10.6317 -10.5381 -10.4731 -10.4097 -10.3984 -10.3877
   -10.3715 -10.2871   0.4785   3.8119   9.8671  10.9660  13.5659  14.2715
    17.3315  17.4324

     occupation numbers 
     1.0000   1.0000   1.0000   1.0000   1.0000   1.0000   1.0000   1.0000
     1.0000   1.0000   1.0000   1.0000   1.0000   0.1162   0.0000   0.0000
     0.0000   0.0000

          k = 0.2839 0.2839 0.0000 (  4360 PWs)   bands (ev):

   -10.6595 -10.6406 -10.6230 -10.5138 -10.4964 -10.4201 -10.3922 -10.3791
   -10.3759 -10.3087   0.8684   3.1019  10.3162  11.4129  12.7996  13.6035
    17.2058  17.2738

     occupation numbers 
     1.0000   1.0000   1.0000   1.0000   1.0000   1.0000   1.0000   1.0000
     1.0000   1.0000   1.0000   1.0000   1.0000   0.0000   0.0000   0.0000
     0.0000   0.0000

          k = 0.3312 0.3312 0.0000 (  4356 PWs)   bands (ev):

   -10.6576 -10.6481 -10.5898 -10.5246 -10.4882 -10.4392 -10.3875 -10.3822
   -10.3622 -10.3287   1.3278   2.4477  10.8384  11.8912  12.0852  12.9828
    17.1334  17.1675

     occupation numbers 
     1.0000   1.0000   1.0000   1.0000   1.0000   1.0000   1.0000   1.0000
     1.0000   1.0000   1.0000   1.0000   0.6773   0.0000   0.0000   0.0000
     0.0000   0.0000

          k =-0.3785-0.3785 0.0000 (  4374 PWs)   bands (ev):

   -10.6538 -10.6538 -10.5564 -10.5564 -10.4628 -10.4628 -10.3844 -10.3844
   -10.3467 -10.3467   1.8550   1.8550  11.4296  11.4296  12.4125  12.4125
    17.1201  17.1201

     occupation numbers 
     1.0000   1.0000   1.0000   1.0000   1.0000   1.0000   1.0000   1.0000
     1.0000   1.0000   1.0000   1.0000   0.0000   0.0000   0.0000   0.0000
     0.0000   0.0000

          k = 0.0473 0.0000 0.0876 (  4324 PWs)   bands (ev):

   -10.7316 -10.6438 -10.6002 -10.5858 -10.4336 -10.4330 -10.4165 -10.4159
   -10.3310 -10.2186  -0.3302   7.0598   8.8271   9.1005  13.9093  16.7548
    17.1439  17.3066

     occupation numbers 
     1.0000   1.0000   1.0000   1.0000   1.0000   1.0000   1.0000   1.0000
     1.0000   1.0000   1.0000   1.0000   1.0000   1.0000   0.0000   0.0000
     0.0000   0.0000

          k = 0.0946 0.0473 0.0876 (  4331 PWs)   bands (ev):

   -10.7249 -10.6450 -10.5947 -10.5901 -10.4350 -10.4292 -10.4166 -10.4137
   -10.3350 -10.2254  -0.2591   6.5290   8.8272   9.5829  14.2365  16.0830
    16.8810  17.1710

     occupation numbers 
     1.0000   1.0000   1.0000   1.0000   1.0000   1.0000   1.0000   1.0000
     1.0000   1.0000   1.0000   1.0000   1.0000   1.0000   0.0000   0.0000
     0.0000   0.0000

          k = 0.1419 0.0946 0.0876 (  4337 PWs)   bands (ev):

   -10.7117 -10.6469 -10.5980 -10.5835 -10.4402 -10.4224 -10.4151 -10.4094
   -10.3428 -10.2383  -0.1170   5.7951   8.9681  10.0969  14.8704  15.3003
    16.3227  16.9585

     occupation numbers 
     1.0000   1.0000   1.0000   1.0000   1.0000   1.0000   1.0000   1.0000
     1.0000   1.0000   1.0000   1.0000   1.0000   1.0000   0.0000   0.0000
     0.0000   0.0000

          k = 0.1892 0.1419 0.0876 (  4342 PWs)   bands (ev):

   -10.6926 -10.6490 -10.6076 -10.5677 -10.4504 -10.4151 -10.4108 -10.4035
   -10.3539 -10.2560   0.0962   5.0156   9.2046  10.5725  14.4846  15.6417
    15.7818  16.7283

     occupation numbers 
     1.0000   1.0000   1.0000   1.0000   1.0000   1.0000   1.0000   1.0000
     1.0000   1.0000   1.0000   1.0000   1.0000   1.0178   0.0000   0.0000
     0.0000   0.0000

          k = 0.2365 0.1892 0.0876 (  4349 PWs)   bands (ev):

   -10.6685 -10.6503 -10.6178 -10.5478 -10.4658 -10.4121 -10.4031 -10.3956
   -10.3670 -10.2766   0.3803   4.2475   9.5243  11.0205  13.6857  14.9488
    16.5094  16.8444

     occupation numbers 
     1.0000   1.0000   1.0000   1.0000   1.0000   1.0000   1.0000   1.0000
     1.0000   1.0000   1.0000   1.0000   1.0000   0.0337   0.0000   0.0000
     0.0000   0.0000

          k = 0.2839 0.2365 0.0876 (  4350 PWs)   bands (ev):

   -10.6525 -10.6384 -10.6274 -10.5249 -10.4866 -10.4153 -10.3963 -10.3850
   -10.3782 -10.2981   0.7349   3.5161   9.9214  11.4688  12.9206  14.2626
    16.3423  16.7517

     occupation numbers 
     1.0000   1.0000   1.0000   1.0000   1.0000   1.0000   1.0000   1.0000
     1.0000   1.0000   1.0000   1.0000   1.0000   0.0000   0.0000   0.0000
     0.0000   0.0000

          k = 0.3312 0.2839 0.0876 (  4353 PWs)   bands (ev):

   -10.6509 -10.6362 -10.6071 -10.5124 -10.5000 -10.4288 -10.3915 -10.3846
   -10.3708 -10.3190   1.1594   2.8350  10.3918  11.9399  12.2022  13.6123
    16.2237  16.6315

     occupation numbers 
     1.0000   1.0000   1.0000   1.0000   1.0000   1.0000   1.0000   1.0000
     1.0000   1.0000   1.0000   1.0000   1.0001   0.0000   0.0000   0.0000
     0.0000   0.0000

          k = 0.3785 0.3312 0.0876 (  4366 PWs)   bands (ev):

   -10.6480 -10.6430 -10.5745 -10.5422 -10.4746 -10.4500 -10.3884 -10.3865
   -10.3555 -10.3382   1.6525   2.2121  10.9308  11.5374  12.4497  13.0085
    16.1630  16.5693

     occupation numbers 
     1.0000   1.0000   1.0000   1.0000   1.0000   1.0000   1.0000   1.0000
     1.0000   1.0000   1.0000   1.0000   0.2204   0.0000   0.0000   0.0000
     0.0000   0.0000

          k = 0.0946 0.0000 0.1751 (  4320 PWs)   bands (ev):

   -10.7237 -10.6190 -10.5915 -10.5577 -10.4495 -10.4435 -10.4214 -10.4207
   -10.3352 -10.2264  -0.0920   6.8371   8.8564   9.7732  14.3000  15.4048
    15.8881  16.5040

     occupation numbers 
     1.0000   1.0000   1.0000   1.0000   1.0000   1.0000   1.0000   1.0000
     1.0000   1.0000   1.0000   1.0000   1.0000   1.0000   0.0000   0.0000
     0.0000   0.0000

          k = 0.1419 0.0473 0.1751 (  4344 PWs)   bands (ev):

   -10.7144 -10.6211 -10.5837 -10.5655 -10.4489 -10.4370 -10.4230 -10.4175
   -10.3410 -10.2357   0.0146   6.2754   8.7902  10.3535  14.7490  14.9263
    15.7247  16.1080

     occupation numbers 
     1.0000   1.0000   1.0000   1.0000   1.0000   1.0000   1.0000   1.0000
     1.0000   1.0000   1.0000   1.0000   1.0000   1.0000   0.0000   0.0000
     0.0000   0.0000

          k = 0.1892 0.0946 0.1751 (  4347 PWs)   bands (ev):

   -10.6993 -10.6238 -10.5773 -10.5698 -10.4522 -10.4317 -10.4191 -10.4126
   -10.3504 -10.2501   0.1922   5.5597   8.9065  10.8921  14.2909  15.3624
    15.4943  15.8210

     occupation numbers 
     1.0000   1.0000   1.0000   1.0000   1.0000   1.0000   1.0000   1.0000
     1.0000   1.0000   1.0000   1.0000   1.0000   0.3882   0.0000   0.0000
     0.0000   0.0000

          k = 0.2365 0.1419 0.1751 (  4350 PWs)   bands (ev):

   -10.6791 -10.6262 -10.5883 -10.5533 -10.4638 -10.4266 -10.4094 -10.4066
   -10.3629 -10.2683   0.4406   4.8065   9.1421  11.3788  13.5899  15.0204
    15.4664  16.3307

     occupation numbers 
     1.0000   1.0000   1.0000   1.0000   1.0000   1.0000   1.0000   1.0000
     1.0000   1.0000   1.0000   1.0000   1.0000   0.0000   0.0000   0.0000
     0.0000   0.0000

          k = 0.2839 0.1892 0.1751 (  4349 PWs)   bands (ev):

   -10.6553 -10.6268 -10.5996 -10.5327 -10.4820 -10.4218 -10.4023 -10.3964
   -10.3771 -10.2886   0.7596   4.0677   9.4695  11.8405  12.8703  14.7207
    15.0798  15.9555

     occupation numbers 
     1.0000   1.0000   1.0000   1.0000   1.0000   1.0000   1.0000   1.0000
     1.0000   1.0000   1.0000   1.0000   1.0000   0.0000   0.0000   0.0000
     0.0000   0.0000

          k = 0.3312 0.2365 0.1751 (  4350 PWs)   bands (ev):

   -10.6353 -10.6186 -10.6098 -10.5102 -10.5045 -10.4232 -10.3980 -10.3915
   -10.3805 -10.3094   1.1486   3.3678   9.8760  12.1692  12.3073  14.3523
    14.7433  15.7070

     occupation numbers 
     1.0000   1.0000   1.0000   1.0000   1.0000   1.0000   1.0000   1.0000
     1.0000   1.0000   1.0000   1.0000   1.0000   0.0000   0.0000   0.0000
     0.0000   0.0000

          k = 0.3785 0.2839 0.1751 (  4351 PWs)   bands (ev):

   -10.6295 -10.6183 -10.5922 -10.5325 -10.4848 -10.4372 -10.3955 -10.3945
[...]
   -10.3669 -10.3234   4.2156   4.7897   7.5242   7.5967   8.4105  14.7768
    17.1568  17.3476

     occupation numbers 
     1.0000   1.0000   1.0000   1.0000   1.0000   1.0000   1.0000   1.0000
     1.0000   1.0000   1.0000   1.0000   1.0000   1.0000   1.0000   0.0000
     0.0000   0.0000

          k = 0.0000-0.0946 1.0508 (  4350 PWs)   bands (ev):

   -10.6211 -10.5723 -10.4945 -10.4808 -10.4755 -10.4603 -10.4470 -10.4056
   -10.4036 -10.3500   3.6858   4.2127   7.0309   7.4465   9.7060  15.9042
    18.1203  18.6416

     occupation numbers 
     1.0000   1.0000   1.0000   1.0000   1.0000   1.0000   1.0000   1.0000
     1.0000   1.0000   1.0000   1.0000   1.0000   1.0000   1.0000   0.0000
     0.0000   0.0000

          k = 0.0473-0.0473 1.0508 (  4356 PWs)   bands (ev):

   -10.6205 -10.5709 -10.4897 -10.4846 -10.4771 -10.4525 -10.4518 -10.4077
   -10.4032 -10.3528   3.8486   4.1741   7.0943   7.1309   9.6571  16.0714
    18.4066  18.4193

     occupation numbers 
     1.0000   1.0000   1.0000   1.0000   1.0000   1.0000   1.0000   1.0000
     1.0000   1.0000   1.0000   1.0000   1.0000   1.0000   1.0000   0.0000
     0.0000   0.0000

          k =-0.7570-0.1419-0.2627 (  4359 PWs)   bands (ev):

   -10.6241 -10.6085 -10.4980 -10.4825 -10.4562 -10.4489 -10.4351 -10.4146
   -10.4128 -10.3677   2.9863   3.8856   6.6810   7.5687  11.2578  16.9377
    18.9150  18.9337

     occupation numbers 
     1.0000   1.0000   1.0000   1.0000   1.0000   1.0000   1.0000   1.0000
     1.0000   1.0000   1.0000   1.0000   1.0000   1.0000   0.0000   0.0000
     0.0000   0.0000

          k =-0.7096-0.0946-0.2627 (  4366 PWs)   bands (ev):

   -10.6241 -10.6084 -10.4785 -10.4775 -10.4636 -10.4514 -10.4388 -10.4179
   -10.4142 -10.3740   3.3367   3.7093   6.7359   7.0621  11.1806  17.1777
    19.2135  19.2907

     occupation numbers 
     1.0000   1.0000   1.0000   1.0000   1.0000   1.0000   1.0000   1.0000
     1.0000   1.0000   1.0000   1.0000   1.0000   1.0000   0.0001   0.0000
     0.0000   0.0000

          k = 0.0000 0.5677-0.1751 (  4364 PWs)   bands (ev):

   -10.6412 -10.6333 -10.5281 -10.4783 -10.4495 -10.4385 -10.4312 -10.4115
   -10.3938 -10.3742   2.3232   3.7267   6.4846   7.9119  12.9748  17.5478
    18.2462  19.3349

     occupation numbers 
     1.0000   1.0000   1.0000   1.0000   1.0000   1.0000   1.0000   1.0000
     1.0000   1.0000   1.0000   1.0000   1.0000   1.0000   0.0000   0.0000
     0.0000   0.0000

          k =-0.7096-0.1419-0.1751 (  4364 PWs)   bands (ev):

   -10.6400 -10.6360 -10.5058 -10.4708 -10.4600 -10.4348 -10.4296 -10.4169
   -10.4034 -10.3821   2.7182   3.4969   6.5098   7.2962  12.8715  17.8706
    18.8438  19.4977

     occupation numbers 
     1.0000   1.0000   1.0000   1.0000   1.0000   1.0000   1.0000   1.0000
     1.0000   1.0000   1.0000   1.0000   1.0000   1.0000   0.0000   0.0000
     0.0000   0.0000

          k =-0.6623-0.0946-0.1751 (  4362 PWs)   bands (ev):

   -10.6391 -10.6375 -10.4908 -10.4723 -10.4670 -10.4318 -10.4290 -10.4214
   -10.4048 -10.3857   3.0784   3.1814   6.7924   6.8268  12.8369  17.9501
    19.2796  19.3334

     occupation numbers 
     1.0000   1.0000   1.0000   1.0000   1.0000   1.0000   1.0000   1.0000
     1.0000   1.0000   1.0000   1.0000   1.0000   1.0000   0.0000   0.0000
     0.0000   0.0000

          k = 0.0000 0.5204-0.0876 (  4367 PWs)   bands (ev):

   -10.6606 -10.6476 -10.5549 -10.4842 -10.4479 -10.4298 -10.4257 -10.4040
   -10.3797 -10.3663   1.7704   3.7160   6.4471   8.4448  14.7811  16.8664
    17.8024  19.2279

     occupation numbers 
     1.0000   1.0000   1.0000   1.0000   1.0000   1.0000   1.0000   1.0000
     1.0000   1.0000   1.0000   1.0000   1.0000   1.0000   0.0000   0.0000
     0.0000   0.0000

          k = 0.0473 0.5677-0.0876 (  4365 PWs)   bands (ev):

   -10.6595 -10.6512 -10.5306 -10.4719 -10.4590 -10.4331 -10.4214 -10.4078
   -10.3854 -10.3802   2.1638   3.4477   6.4409   7.7560  14.6640  17.4754
    18.0024  19.2959

     occupation numbers 
     1.0000   1.0000   1.0000   1.0000   1.0000   1.0000   1.0000   1.0000
     1.0000   1.0000   1.0000   1.0000   1.0000   1.0000   0.0000   0.0000
     0.0000   0.0000

          k =-0.6623-0.1419-0.0876 (  4360 PWs)   bands (ev):

   -10.6584 -10.6536 -10.5065 -10.4794 -10.4606 -10.4387 -10.4161 -10.4078
   -10.3921 -10.3869   2.5974   3.0462   6.7107   7.1685  14.6031  17.6088
    18.5029  18.9864

     occupation numbers 
     1.0000   1.0000   1.0000   1.0000   1.0000   1.0000   1.0000   1.0000
     1.0000   1.0000   1.0000   1.0000   1.0000   1.0000   0.0000   0.0000
     0.0000   0.0000

          k = 0.0000 0.4731 0.0000 (  4374 PWs)   bands (ev):

   -10.6680 -10.6509 -10.5795 -10.4969 -10.4435 -10.4253 -10.4222 -10.3970
   -10.3769 -10.3484   1.3539   3.8523   6.5694   9.1475  15.7867  16.5927
    16.7651  18.9409

     occupation numbers 
     1.0000   1.0000   1.0000   1.0000   1.0000   1.0000   1.0000   1.0000
     1.0000   1.0000   1.0000   1.0000   1.0000   1.0000   0.0000   0.0000
     0.0000   0.0000

          k = 0.0473 0.5204 0.0000 (  4367 PWs)   bands (ev):

   -10.6668 -10.6555 -10.5547 -10.4821 -10.4553 -10.4298 -10.4166 -10.4025
   -10.3793 -10.3653   1.7281   3.5479   6.5322   8.4055  16.2471  16.4605
    17.0206  18.9775

     occupation numbers 
     1.0000   1.0000   1.0000   1.0000   1.0000   1.0000   1.0000   1.0000
     1.0000   1.0000   1.0000   1.0000   1.0000   1.0000   0.0000   0.0000
     0.0000   0.0000

          k = 0.0946 0.5677 0.0000 (  4360 PWs)   bands (ev):

   -10.6649 -10.6594 -10.5284 -10.4775 -10.4653 -10.4385 -10.4085 -10.4039
   -10.3828 -10.3782   2.1572   3.1096   6.7703   7.7495  16.3061  16.3692
    17.5823  18.6368

     occupation numbers 
     1.0000   1.0000   1.0000   1.0000   1.0000   1.0000   1.0000   1.0000
     1.0000   1.0000   1.0000   1.0000   1.0000   1.0000   0.0000   0.0000
     0.0000   0.0000

          k =-0.6150-0.1419 0.0000 (  4346 PWs)   bands (ev):

   -10.6625 -10.6625 -10.5018 -10.5018 -10.4511 -10.4511 -10.4038 -10.4038
   -10.3842 -10.3842   2.6272   2.6272   7.1949   7.1949  16.3215  16.3215
    18.1423  18.1423

     occupation numbers 
     1.0000   1.0000   1.0000   1.0000   1.0000   1.0000   1.0000   1.0000
     1.0000   1.0000   1.0000   1.0000   1.0000   1.0000   0.0000   0.0000
     0.0000   0.0000

          k = 0.0000 0.0000 1.0508 (  4348 PWs)   bands (ev):

   -10.6197 -10.5689 -10.4872 -10.4872 -10.4828 -10.4467 -10.4467 -10.4129
   -10.4023 -10.3563   3.9201   4.2724   6.9627   6.9627   9.6098  16.2933
    18.4054  18.4054

     occupation numbers 
     1.0000   1.0000   1.0000   1.0000   1.0000   1.0000   1.0000   1.0000
     1.0000   1.0000   1.0000   1.0000   1.0000   1.0000   1.0000   0.0000
     0.0000   0.0000

          k = 0.0000-0.0473 1.1383 (  4366 PWs)   bands (ev):

   -10.6239 -10.6078 -10.4746 -10.4648 -10.4619 -10.4547 -10.4333 -10.4299
   -10.4135 -10.3841   3.5537   3.8013   6.5423   6.6674  11.1041  17.5468
    19.4072  19.4787

     occupation numbers 
     1.0000   1.0000   1.0000   1.0000   1.0000   1.0000   1.0000   1.0000
     1.0000   1.0000   1.0000   1.0000   1.0000   1.0000   0.0028   0.0000
     0.0000   0.0000

          k =-0.7570-0.0946-0.1751 (  4376 PWs)   bands (ev):

   -10.6398 -10.6374 -10.4867 -10.4667 -10.4498 -10.4411 -10.4281 -10.4182
   -10.4169 -10.3949   3.0532   3.5248   6.2755   6.7396  12.7679  18.2121
    19.5543  19.9002

     occupation numbers 
     1.0000   1.0000   1.0000   1.0000   1.0000   1.0000   1.0000   1.0000
     1.0000   1.0000   1.0000   1.0000   1.0000   1.0000   0.0000   0.0000
     0.0000   0.0000

          k =-0.7096-0.0473-0.1751 (  4378 PWs)   bands (ev):

   -10.6396 -10.6379 -10.4763 -10.4648 -10.4527 -10.4392 -10.4270 -10.4233
   -10.4164 -10.4025   3.2932   3.4176   6.3643   6.3753  12.7332  18.3154
    19.9031  19.9522

     occupation numbers 
     1.0000   1.0000   1.0000   1.0000   1.0000   1.0000   1.0000   1.0000
     1.0000   1.0000   1.0000   1.0000   1.0000   1.0000   0.0000   0.0000
     0.0000   0.0000

          k = 0.0000 0.6150-0.0876 (  4373 PWs)   bands (ev):

   -10.6595 -10.6534 -10.5087 -10.4635 -10.4530 -10.4348 -10.4268 -10.4112
   -10.3974 -10.3919   2.5281   3.4387   6.1696   7.0981  14.5427  17.6723
    18.7756  19.8431

     occupation numbers 
     1.0000   1.0000   1.0000   1.0000   1.0000   1.0000   1.0000   1.0000
     1.0000   1.0000   1.0000   1.0000   1.0000   1.0000   0.0000   0.0000
     0.0000   0.0000

          k =-0.7096-0.0946-0.0876 (  4363 PWs)   bands (ev):

   -10.6592 -10.6546 -10.4884 -10.4621 -10.4570 -10.4364 -10.4233 -10.4119
   -10.4054 -10.4014   2.9042   3.2416   6.2307   6.5705  14.4809  17.6941
    19.4511  19.8529

     occupation numbers 
     1.0000   1.0000   1.0000   1.0000   1.0000   1.0000   1.0000   1.0000
     1.0000   1.0000   1.0000   1.0000   1.0000   1.0000   0.0000   0.0000
     0.0000   0.0000

          k = 0.0000 0.5677 0.0000 (  4376 PWs)   bands (ev):

   -10.6663 -10.6588 -10.5318 -10.4706 -10.4513 -10.4333 -10.4219 -10.4068
   -10.3856 -10.3811   2.0873   3.5038   6.2272   7.6796  16.2798  16.3407
    17.8691  19.5731

     occupation numbers 
     1.0000   1.0000   1.0000   1.0000   1.0000   1.0000   1.0000   1.0000
     1.0000   1.0000   1.0000   1.0000   1.0000   1.0000   0.0000   0.0000
     0.0000   0.0000

          k = 0.0473 0.6150 0.0000 (  4366 PWs)   bands (ev):

   -10.6653 -10.6615 -10.5077 -10.4639 -10.4582 -10.4393 -10.4168 -10.4083
   -10.3932 -10.3929   2.4877   3.2699   6.2546   7.0548  16.2372  16.2602
    18.6395  19.5971

     occupation numbers 
     1.0000   1.0000   1.0000   1.0000   1.0000   1.0000   1.0000   1.0000
     1.0000   1.0000   1.0000   1.0000   1.0000   1.0000   0.0000   0.0000
     0.0000   0.0000

          k =-0.6623-0.0946 0.0000 (  4362 PWs)   bands (ev):

   -10.6637 -10.6637 -10.4841 -10.4841 -10.4480 -10.4480 -10.4096 -10.4096
   -10.3982 -10.3982   2.9010   2.9010   6.5606   6.5606  16.2260  16.2260
    19.2282  19.2282

     occupation numbers 
     1.0000   1.0000   1.0000   1.0000   1.0000   1.0000   1.0000   1.0000
     1.0000   1.0000   1.0000   1.0000   1.0000   1.0000   0.0000   0.0000
     0.0000   0.0000

          k = 0.0000 0.0000 1.2259 (  4380 PWs)   bands (ev):

   -10.6397 -10.6380 -10.4694 -10.4637 -10.4427 -10.4427 -10.4240 -10.4216
   -10.4216 -10.4161   3.3813   3.5160   6.2050   6.2050  12.6985  18.4332
    20.1390  20.1390

     occupation numbers 
     1.0000   1.0000   1.0000   1.0000   1.0000   1.0000   1.0000   1.0000
     1.0000   1.0000   1.0000   1.0000   1.0000   1.0000   0.0000   0.0000
     0.0000   0.0000

          k =-0.7570-0.0473-0.0876 (  4360 PWs)   bands (ev):

   -10.6595 -10.6551 -10.4745 -10.4548 -10.4482 -10.4352 -10.4281 -10.4191
   -10.4138 -10.4113   3.1636   3.3070   6.0281   6.1599  14.4187  17.7087
    20.0942  20.2550

     occupation numbers 
     1.0000   1.0000   1.0000   1.0000   1.0000   1.0000   1.0000   1.0000
     1.0000   1.0000   1.0000   1.0000   1.0000   1.0000   0.0000   0.0000
     0.0000   0.0000

          k = 0.0000 0.6623 0.0000 (  4364 PWs)   bands (ev):

   -10.6650 -10.6631 -10.4868 -10.4571 -10.4519 -10.4414 -10.4227 -10.4106
   -10.4049 -10.4035   2.8317   3.2964   6.0162   6.4899  16.1773  16.1865
    19.5031  20.1075

     occupation numbers 
     1.0000   1.0000   1.0000   1.0000   1.0000   1.0000   1.0000   1.0000
     1.0000   1.0000   1.0000   1.0000   1.0000   1.0000   0.0000   0.0000
     0.0000   0.0000

          k =-0.7096-0.0473 0.0000 (  4362 PWs)   bands (ev):

   -10.6643 -10.6643 -10.4677 -10.4677 -10.4455 -10.4455 -10.4170 -10.4170
   -10.4089 -10.4089   3.1317   3.1317   6.1131   6.1131  16.1583  16.1583
    20.0331  20.0331

     occupation numbers 
     1.0000   1.0000   1.0000   1.0000   1.0000   1.0000   1.0000   1.0000
     1.0000   1.0000   1.0000   1.0000   1.0000   1.0000   0.0000   0.0000
     0.0000   0.0000

          k =-0.7570-0.7570-1.4010 (  4352 PWs)   bands (ev):

   -10.6645 -10.6645 -10.4592 -10.4592 -10.4445 -10.4445 -10.4236 -10.4236
   -10.4115 -10.4115   3.2275   3.2275   5.9449   5.9449  16.1347  16.1347
    20.3314  20.3314

     occupation numbers 
     1.0000   1.0000   1.0000   1.0000   1.0000   1.0000   1.0000   1.0000
     1.0000   1.0000   1.0000   1.0000   1.0000   1.0000   0.0000   0.0000
     0.0000   0.0000

     the Fermi energy is    10.8896 ev

!    total energy              =    -317.84391028 Ry
     Harris-Foulkes estimate   =    -317.84391028 Ry
     estimated scf accuracy    <          3.5E-15 Ry

     The total energy is the sum of the following terms:

     one-electron contribution =    -109.43088499 Ry
     hartree contribution      =      75.25167243 Ry
     xc contribution           =     -85.14772439 Ry
     ewald contribution        =    -198.51692357 Ry
     smearing contrib. (-TS)   =      -0.00004975 Ry

     convergence has been achieved in  10 iterations

     Forces acting on atoms (cartesian axes, Ry/au):

     atom    1 type  1   force =     0.00000000    0.00000000    0.00000000
     atom    2 type  1   force =     0.00000000    0.00000000    0.00000000
     The non-local contrib.  to forces
     atom    1 type  1   force =     0.00000000    0.00000000    0.00000000
     atom    2 type  1   force =     0.00000000    0.00000000    0.00000000
     The ionic contribution  to forces
     atom    1 type  1   force =    -0.00000000    0.00000000    0.00000000
     atom    2 type  1   force =     0.00000000   -0.00000000   -0.00000000
     The local contribution  to forces
     atom    1 type  1   force =     0.00000000   -0.00000000    0.00000000
     atom    2 type  1   force =     0.00000000   -0.00000000    0.00000000
     The core correction contribution to forces
     atom    1 type  1   force =     0.00000000   -0.00000000   -0.00000000
     atom    2 type  1   force =     0.00000000   -0.00000000    0.00000000
     The Hubbard contrib.    to forces
     atom    1 type  1   force =     0.00000000    0.00000000    0.00000000
     atom    2 type  1   force =     0.00000000    0.00000000    0.00000000
     The SCF correction term to forces
     atom    1 type  1   force =    -0.00000000   -0.00000000    0.00000000
     atom    2 type  1   force =     0.00000000   -0.00000000    0.00000000

     Total force =     0.000000     Total SCF correction =     0.000000


     Computing stress (Cartesian axis) and pressure

          total   stress  (Ry/bohr**3)                   (kbar)     P=    0.05
   0.00000012   0.00000000   0.00000000          0.02      0.00      0.00
   0.00000000   0.00000012   0.00000000          0.00      0.02      0.00
   0.00000000   0.00000000   0.00000069          0.00      0.00      0.10

     kinetic stress (kbar)   8303.42      0.00      0.00
                                0.00   8303.42      0.00
                                0.00      0.00   8295.56

     local   stress (kbar)   5030.34      0.00     -0.00
                                0.00   5030.34      0.00
                               -0.00      0.00   4383.47

     nonloc. stress (kbar)  10211.91     -0.00     -0.00
                               -0.00  10211.91     -0.00
                               -0.00     -0.00  10180.48

     hartree stress (kbar)  10163.10     -0.00     -0.00
                               -0.00  10163.10      0.00
                               -0.00      0.00  10460.30

     exc-cor stress (kbar)  13081.47     -0.00     -0.00
                               -0.00  13081.47     -0.00
                               -0.00     -0.00  13080.80

     corecor stress (kbar) -19588.72     -0.00     -0.00
                               -0.00 -19588.72      0.00
                               -0.00      0.00 -19587.49

     ewald   stress (kbar) -27201.50      0.00      0.00
                                0.00 -27201.50     -0.00
                                0.00     -0.00 -26813.02

     hubbard stress (kbar)      0.00      0.00      0.00
                                0.00      0.00      0.00
                                0.00      0.00      0.00

     london  stress (kbar)      0.00      0.00      0.00
                                0.00      0.00      0.00
                                0.00      0.00      0.00

     DFT-D3  stress (kbar)      0.00      0.00      0.00
                                0.00      0.00      0.00
                                0.00      0.00      0.00

     XDM     stress (kbar)      0.00      0.00      0.00
                                0.00      0.00      0.00
                                0.00      0.00      0.00

     dft-nl  stress (kbar)      0.00      0.00      0.00
                                0.00      0.00      0.00
                                0.00      0.00      0.00

     TS-vdW  stress (kbar)      0.00      0.00      0.00
                                0.00      0.00      0.00
                                0.00      0.00      0.00



     Writing output data file scf.save/
 
     init_run     :      0.95s CPU      1.03s WALL (       1 calls)
     electrons    :     12.29s CPU     12.66s WALL (       1 calls)
     forces       :      0.32s CPU      0.33s WALL (       1 calls)
     stress       :      0.59s CPU      0.60s WALL (       1 calls)

     Called by init_run:
     wfcinit      :      0.25s CPU      0.28s WALL (       1 calls)
     wfcinit:atom :      0.00s CPU      0.00s WALL (       4 calls)
     wfcinit:wfcr :      0.23s CPU      0.25s WALL (       4 calls)
     potinit      :      0.23s CPU      0.25s WALL (       1 calls)
     hinit0       :      0.42s CPU      0.43s WALL (       1 calls)

     Called by electrons:
     c_bands      :      8.18s CPU      8.29s WALL (      10 calls)
     sum_band     :      1.67s CPU      1.71s WALL (      10 calls)
     v_of_rho     :      1.85s CPU      1.96s WALL (      11 calls)
     v_h          :      0.11s CPU      0.12s WALL (      11 calls)
     v_xc         :      2.03s CPU      2.16s WALL (      13 calls)
     newd         :      0.20s CPU      0.20s WALL (      11 calls)
     mix_rho      :      0.26s CPU      0.27s WALL (      10 calls)

     Called by c_bands:
     init_us_2    :      0.11s CPU      0.12s WALL (      92 calls)
     cegterg      :      7.01s CPU      7.09s WALL (      40 calls)

     Called by sum_band:
     sum_band:bec :      0.00s CPU      0.00s WALL (      40 calls)
     addusdens    :      0.09s CPU      0.11s WALL (      10 calls)

     Called by *egterg:
     h_psi        :      6.35s CPU      6.40s WALL (     156 calls)
     s_psi        :      0.16s CPU      0.16s WALL (     156 calls)
     g_psi        :      0.02s CPU      0.02s WALL (     112 calls)
     cdiaghg      :      0.12s CPU      0.14s WALL (     152 calls)
     cegterg:over :      0.20s CPU      0.20s WALL (     112 calls)
     cegterg:upda :      0.19s CPU      0.19s WALL (     112 calls)
     cegterg:last :      0.08s CPU      0.08s WALL (      43 calls)

     Called by h_psi:
     h_psi:pot    :      6.32s CPU      6.36s WALL (     156 calls)
     h_psi:calbec :      0.11s CPU      0.11s WALL (     156 calls)
     vloc_psi     :      6.05s CPU      6.08s WALL (     156 calls)
     add_vuspsi   :      0.16s CPU      0.17s WALL (     156 calls)

     General routines
     calbec       :      0.16s CPU      0.16s WALL (     216 calls)
     fft          :      1.00s CPU      1.00s WALL (     166 calls)
     ffts         :      0.03s CPU      0.03s WALL (      21 calls)
     fftw         :      6.26s CPU      6.30s WALL (    4908 calls)
     interpolate  :      0.12s CPU      0.12s WALL (      11 calls)
 
     Parallel routines
 
     PWSCF        :     14.31s CPU     15.43s WALL

 
   This run was terminated on:  14:38: 7  10Nov2020            

=------------------------------------------------------------------------------=
   JOB DONE.
=------------------------------------------------------------------------------=
