
     Program PWSCF v.6.3 starts on  4Dec2019 at 18:29:40 

     This program is part of the open-source Quantum ESPRESSO suite
     for quantum simulation of materials; please cite
         "P. Giannozzi et al., J. Phys.:Condens. Matter 21 395502 (2009);
         "P. Giannozzi et al., J. Phys.:Condens. Matter 29 465901 (2017);
          URL http://www.quantum-espresso.org", 
     in publications or presentations arising from this work. More details at
     http://www.quantum-espresso.org/quote

     Parallel version (MPI), running on   448 processors

     MPI processes distributed on    14 nodes
     R & G space division:  proc/nbgrp/npool/nimage =     448
     Reading input from scf.pwi
Warning: card &IONS ignored
Warning: card / ignored
Warning: card &CELL ignored
Warning: card    CELL_DOFREE      = '2DXY' ignored
Warning: card / ignored

     Current dimensions of program PWSCF are:
     Max number of different atomic species (ntypx) = 10
     Max number of k-points (npk) =  40000
     Max angular momentum in pseudopotentials (lmaxx) =  3

     gamma-point specific algorithms are used

     Subspace diagonalization in iterative solution of the eigenvalue problem:
     one sub-group per band group will be used
     scalapack distributed-memory algorithm (size of sub-group: 14* 14 procs)

 
     Parallelization info
     --------------------
     sticks:   dense  smooth     PW     G-vecs:    dense   smooth      PW
     Min         460     229     56               184940    65380    8140
     Max         462     232     58               184994    65412    8198
     Sum      206659  103297  25827             82864339 29296605 3662131
 


     bravais-lattice index     =            0
     lattice parameter (alat)  =      74.9798  a.u.
     unit-cell volume          =  613376.7080 (a.u.)^3
     number of atoms/cell      =          200
     number of atomic types    =            1
     number of electrons       =      2800.00
     number of Kohn-Sham states=         1680
     kinetic-energy cutoff     =      50.0000  Ry
     charge density cutoff     =     400.0000  Ry
     convergence threshold     =      2.0E-08
     mixing beta               =       0.4000
     number of iterations used =            8  local-TF  mixing
     Exchange-correlation      = SLA  PW   PSX  PSC ( 1  4 10  8 0 0)

     celldm(1)=  74.979798  celldm(2)=   0.000000  celldm(3)=   0.000000
     celldm(4)=   0.000000  celldm(5)=   0.000000  celldm(6)=   0.000000

     crystal axes: (cart. coord. in units of alat)
               a(1) = (   1.000000   0.000000   0.000000 )  
               a(2) = (   0.000000   1.154702   0.000000 )  
               a(3) = (   0.000000   0.000000   1.260157 )  

     reciprocal axes: (cart. coord. in units 2 pi/alat)
               b(1) = (  1.000000  0.000000  0.000000 )  
               b(2) = (  0.000000  0.866024  0.000000 )  
               b(3) = (  0.000000  0.000000  0.793552 )  


     PseudoPot. # 1 for Sn read from file:
     /n/home08/xiey/q-e/pseudo/sn_pbesol_v1.4.uspp.F.UPF
     MD5 check sum: 463fec1d5456f1e96ec1bfcad4b7b038
     Pseudo is Ultrasoft + core correction, Zval = 14.0
     Generated by new atomic code, or converted to UPF format
     Using radial grid of  891 points,  6 beta functions with: 
                l(1) =   0
                l(2) =   0
                l(3) =   1
                l(4) =   1
                l(5) =   2
                l(6) =   2
     Q(r) pseudized with  8 coefficients,  rinner =    1.350   1.350   1.350
                                                       1.350   1.350

     atomic species   valence    mass     pseudopotential
        Sn            14.00   118.71000     Sn( 1.00)

     No symmetry found


                                    s                        frac. trans.

      isym =  1     identity                                     

 cryst.   s( 1) = (     1          0          0      )
                  (     0          1          0      )
                  (     0          0          1      )

 cart.    s( 1) = (  1.0000000  0.0000000  0.0000000 )
                  (  0.0000000  1.0000000  0.0000000 )
                  (  0.0000000  0.0000000  1.0000000 )


   Cartesian axes

     site n.     atom                  positions (alat units)
         1           Sn  tau(   1) = (   0.0030659   0.0177301   0.0043456  )
         2           Sn  tau(   2) = (   0.0040128   1.0913941   0.0196597  )
         3           Sn  tau(   3) = (   0.0677848   1.1317015   1.2462094  )
         4           Sn  tau(   4) = (   0.1288382   1.1400387   0.0241788  )
         5           Sn  tau(   5) = (   0.1919330   0.0226392   0.0262670  )
         6           Sn  tau(   6) = (   0.2485302   1.1356332   0.0329773  )
         7           Sn  tau(   7) = (   0.3179502   1.1332691   0.0493115  )
         8           Sn  tau(   8) = (   0.3506991   0.0385144   0.0340222  )
         9           Sn  tau(   9) = (   0.4203001   0.0568059   0.0286817  )
        10           Sn  tau(  10) = (   0.4560331   1.1511457   0.0271652  )
        11           Sn  tau(  11) = (   0.5233810   1.1544347   0.0089789  )
        12           Sn  tau(  12) = (   0.5570019   0.0609475   0.0142301  )
        13           Sn  tau(  13) = (   0.6264693   0.0575234   0.0173937  )
        14           Sn  tau(  14) = (   0.6509517   1.1502838   0.0361468  )
        15           Sn  tau(  15) = (   0.7070791  -0.0027314  -0.0046493  )
        16           Sn  tau(  16) = (   0.7356695   0.0634948   0.0130667  )
        17           Sn  tau(  17) = (   0.8040759   0.0567386   1.2618984  )
        18           Sn  tau(  18) = (   0.8726990   0.0219677   1.2562882  )
        19           Sn  tau(  19) = (   0.8721142   1.0867467   0.0065673  )
        20           Sn  tau(  20) = (   0.9318331   0.0640482   0.0081852  )
        21           Sn  tau(  21) = (   0.9361882   0.1449861   1.2549121  )
        22           Sn  tau(  22) = (   0.0074528   0.0940818   1.2500479  )
        23           Sn  tau(  23) = (   0.0771226   0.0500101   0.0043089  )
        24           Sn  tau(  24) = (   0.0661030   0.1345371   0.0170247  )
        25           Sn  tau(  25) = (   0.1363402   0.1015303   0.0127651  )
        26           Sn  tau(  26) = (   0.2328271   0.0749602   0.0049731  )
        27           Sn  tau(  27) = (   0.2932083   0.0790428   0.0489145  )
        28           Sn  tau(  28) = (   0.3638653   0.1078533   0.0107187  )
        29           Sn  tau(  29) = (   0.4201539   0.1762591   0.0350737  )
        30           Sn  tau(  30) = (   0.4538127   0.1160519   0.0266536  )
        31           Sn  tau(  31) = (   0.5231163   0.1140805   0.0441423  )
        32           Sn  tau(  32) = (   0.5614906   0.1718027   0.0297523  )
        33           Sn  tau(  33) = (   0.6269381   0.1795071   0.0069167  )
        34           Sn  tau(  34) = (   0.6601155   0.1217138   0.0182827  )
        35           Sn  tau(  35) = (   0.7158447   0.1258181   1.2385149  )
        36           Sn  tau(  36) = (   0.7247843   0.1890691   0.0218493  )
        37           Sn  tau(  37) = (   0.7991663   0.2201459   0.0013938  )
        38           Sn  tau(  38) = (   0.7863202   0.1401496   0.0094356  )
        39           Sn  tau(  39) = (   0.8595530   0.1084872   0.0101688  )
        40           Sn  tau(  40) = (   0.8615340   0.1870625   0.0037274  )
        41           Sn  tau(  41) = (   1.0004159   0.1854230   0.0074525  )
        42           Sn  tau(  42) = (   0.0733900   0.2225470   0.0097610  )
        43           Sn  tau(  43) = (   0.1253690   0.2782880   1.2609558  )
        44           Sn  tau(  44) = (   0.0482829   0.2971223   1.2659964  )
        45           Sn  tau(  45) = (   0.1841339   0.2167341   0.0139318  )
        46           Sn  tau(  46) = (   0.1261878   0.1765447   0.0355137  )
        47           Sn  tau(  47) = (   0.1974754   0.1414773   0.0175943  )
        48           Sn  tau(  48) = (   0.2918397   0.1466790   0.0142750  )
        49           Sn  tau(  49) = (   0.3505681   0.1828896   0.0317953  )
        50           Sn  tau(  50) = (   0.4573538   0.2327752   0.0165197  )
        51           Sn  tau(  51) = (   0.5271161   0.2347244   0.0312569  )
        52           Sn  tau(  52) = (   0.5783490   0.2797422   0.0555868  )
        53           Sn  tau(  53) = (   0.6152766   0.2954564   1.2526287  )
        54           Sn  tau(  54) = (   0.6580766   0.2407570   0.0235831  )
        55           Sn  tau(  55) = (   0.7174224   0.2501409   1.2422601  )
        56           Sn  tau(  56) = (   0.7470412   0.3054141   0.0194800  )
        57           Sn  tau(  57) = (   0.8033702   0.3021050   1.2342707  )
        58           Sn  tau(  58) = (   0.8643895   0.2711883   0.0050890  )
        59           Sn  tau(  59) = (   0.9254491   0.2254201   0.0194650  )
        60           Sn  tau(  60) = (   0.9291061   0.3162868   1.2580423  )
        61           Sn  tau(  61) = (   1.0038586   0.3568285   0.0043357  )
        62           Sn  tau(  62) = (   0.9880411   0.2618051   0.0047968  )
        63           Sn  tau(  63) = (   0.0667921   0.4180696   0.0062442  )
        64           Sn  tau(  64) = (   0.1045978   0.3563572   1.2475805  )
        65           Sn  tau(  65) = (   0.2675918   0.5166946   1.2500050  )
        66           Sn  tau(  66) = (   0.1366539   0.4277401   1.2442033  )
        67           Sn  tau(  67) = (   0.2404752   0.1872296   0.0546351  )
        68           Sn  tau(  68) = (   0.4913427   0.4594633   0.0220561  )
        69           Sn  tau(  69) = (   0.4665302   0.5350399   0.0466187  )
        70           Sn  tau(  70) = (   0.5047432   0.3043279   0.0408918  )
        71           Sn  tau(  71) = (   0.5651778   0.3518282   0.0219072  )
        72           Sn  tau(  72) = (   0.5528938   0.4730478   0.0539153  )
        73           Sn  tau(  73) = (   0.6073175   0.4218552   0.0273076  )
        74           Sn  tau(  74) = (   0.6425994   0.3527784   0.0370252  )
        75           Sn  tau(  75) = (   0.7112703   0.3661083   0.0088341  )
        76           Sn  tau(  76) = (   0.7227050   0.4386278   0.0094374  )
        77           Sn  tau(  77) = (   0.7865143   0.4685062   1.2486491  )
        78           Sn  tau(  78) = (   0.7863102   0.3859986   1.2476813  )
        79           Sn  tau(  79) = (   0.8596866   0.3493987   0.0017600  )
        80           Sn  tau(  80) = (   0.9309837   0.3948500   1.2487247  )
        81           Sn  tau(  81) = (   0.9959826   0.4364452   1.2566536  )
        82           Sn  tau(  82) = (   0.0620156   0.4911033  -0.0009930  )
        83           Sn  tau(  83) = (   0.1207008   0.4770803   0.0434379  )
        84           Sn  tau(  84) = (   0.1225893   0.5379131   1.2584380  )
        85           Sn  tau(  85) = (   0.1844368   0.4923130   1.2570216  )
        86           Sn  tau(  86) = (   0.2899520   0.5642856   0.0435999  )
        87           Sn  tau(  87) = (   0.4156955   0.4894827   0.0076456  )
        88           Sn  tau(  88) = (   0.3427853   0.5337873   1.2437143  )
        89           Sn  tau(  89) = (   0.4940899   0.5669824   1.2340817  )
        90           Sn  tau(  90) = (   0.4204261   0.5702915   0.0010907  )
        91           Sn  tau(  91) = (   0.5386213   0.5069939   1.2411764  )
        92           Sn  tau(  92) = (   0.5422455   0.5619569   0.0465038  )
        93           Sn  tau(  93) = (   0.5895291   0.6147978   0.0001105  )
        94           Sn  tau(  94) = (   0.6029044   0.5240035   0.0336132  )
        95           Sn  tau(  95) = (   0.6581749   0.4776423   0.0235821  )
        96           Sn  tau(  96) = (   0.7236879   0.5183605   0.0130979  )
        97           Sn  tau(  97) = (   0.7961117   0.5510137   0.0013539  )
        98           Sn  tau(  98) = (   0.8549937   0.4284483   1.2586900  )
        99           Sn  tau(  99) = (   0.9238764   0.4741844   1.2497883  )
       100           Sn  tau( 100) = (   0.8576854   0.5089093   1.2607391  )
       101           Sn  tau( 101) = (   0.9851478   0.6008781  -0.0057976  )
       102           Sn  tau( 102) = (   0.9936286   0.5184336   1.2508897  )
       103           Sn  tau( 103) = (   0.0546958   0.5710325   0.0073057  )
       104           Sn  tau( 104) = (   0.1342032   0.6116625   0.0041342  )
       105           Sn  tau( 105) = (   0.2180525   0.5672268   0.0097984  )
       106           Sn  tau( 106) = (   0.2642045   0.6302952   0.0142180  )
       107           Sn  tau( 107) = (   0.3458627   0.6049736   0.0110069  )
       108           Sn  tau( 108) = (   0.2613843   0.7031423   0.0224118  )
       109           Sn  tau( 109) = (   0.3422284   0.6913573   0.0004269  )
       110           Sn  tau( 110) = (   0.4112572   0.6464958   0.0084603  )
       111           Sn  tau( 111) = (   0.4839632   0.6129554   0.0346662  )
       112           Sn  tau( 112) = (   0.5261054   0.6655342   0.0527280  )
       113           Sn  tau( 113) = (   0.5769427   0.6896309   0.0080695  )
       114           Sn  tau( 114) = (   0.6562645   0.6446055   0.0021740  )
       115           Sn  tau( 115) = (   0.6594754   0.5652156   1.2567670  )
       116           Sn  tau( 116) = (   0.7267451   0.6046711   0.0111564  )
       117           Sn  tau( 117) = (   0.7939139   0.6394918   1.2523943  )
       118           Sn  tau( 118) = (   0.8567958   0.5974177   0.0121646  )
       119           Sn  tau( 119) = (   0.9222130   0.5581361   1.2504562  )
       120           Sn  tau( 120) = (   0.9214998   0.6362809   1.2521145  )
       121           Sn  tau( 121) = (   0.9832450   0.6751845   1.2559757  )
       122           Sn  tau( 122) = (   0.0563005   0.6461706   0.0074959  )
       123           Sn  tau( 123) = (   0.1179358   0.6928342   0.0162608  )
       124           Sn  tau( 124) = (   0.0788836   0.7688393   0.0141895  )
       125           Sn  tau( 125) = (   0.1900301   0.7277935   0.0196201  )
       126           Sn  tau( 126) = (   0.1917286   0.6556243   0.0294476  )
       127           Sn  tau( 127) = (   0.3199085   0.7551818   0.0396372  )
       128           Sn  tau( 128) = (   0.3672274   0.8226178   0.0343486  )
       129           Sn  tau( 129) = (   0.4390941   0.8013842   0.0329644  )
       130           Sn  tau( 130) = (   0.3812075   0.7578457   1.2561143  )
       131           Sn  tau( 131) = (   0.4207286   0.7133874   0.0369702  )
       132           Sn  tau( 132) = (   0.4859442   0.7241718   0.0589753  )
       133           Sn  tau( 133) = (   0.5950662   0.7569057   0.0128299  )
       134           Sn  tau( 134) = (   0.6642867   0.7266972   0.0113723  )
       135           Sn  tau( 135) = (   0.7239626   0.6845349   1.2473587  )
       136           Sn  tau( 136) = (   0.7856977   0.8048496   0.0048981  )
       137           Sn  tau( 137) = (   0.7893219   0.7188187   1.2610289  )
       138           Sn  tau( 138) = (   0.8548400   0.6793707   0.0171279  )
       139           Sn  tau( 139) = (   0.9194835   0.7140931   0.0130347  )
       140           Sn  tau( 140) = (   0.9873203   0.7454382   0.0231895  )
       141           Sn  tau( 141) = (   0.9820352   0.8554928   0.0075224  )
       142           Sn  tau( 142) = (   0.0444409   0.7182390   1.2342884  )
       143           Sn  tau( 143) = (   0.0289793   0.8131767   0.0556074  )
       144           Sn  tau( 144) = (   0.0514184   0.8381883   1.2444099  )
       145           Sn  tau( 145) = (   0.2216755   0.9447119   1.2516508  )
       146           Sn  tau( 146) = (   0.2582944   0.7774865   0.0152453  )
       147           Sn  tau( 147) = (   0.2619664   0.8881737   0.0025365  )
       148           Sn  tau( 148) = (   0.4092611   0.8789418   0.0136173  )
       149           Sn  tau( 149) = (   0.4916779   0.8508025   0.0056831  )
       150           Sn  tau( 150) = (   0.5096276   0.7713420   0.0046457  )
       151           Sn  tau( 151) = (   0.5567852   0.8159919   0.0364326  )
       152           Sn  tau( 152) = (   0.5666245   0.8784125   1.2604013  )
       153           Sn  tau( 153) = (   0.6360818   0.8610022   0.0194363  )
       154           Sn  tau( 154) = (   0.6604129   0.8023923   1.2473915  )
       155           Sn  tau( 155) = (   0.7220976   0.7747293   0.0196233  )
       156           Sn  tau( 156) = (   0.7197865   0.8548249   0.0070378  )
       157           Sn  tau( 157) = (   0.7900831   0.8827802   0.0128814  )
       158           Sn  tau( 158) = (   0.8521534   0.7645599   0.0121667  )
       159           Sn  tau( 159) = (   0.9213914   0.8038238   0.0039192  )
       160           Sn  tau( 160) = (   0.8527734   0.8441438   1.2580196  )
       161           Sn  tau( 161) = (   0.9865415   0.9460527   0.0183707  )
       162           Sn  tau( 162) = (   0.0440642   0.9106297   0.0043228  )
       163           Sn  tau( 163) = (   0.0978272   0.9718431   1.2413427  )
       164           Sn  tau( 164) = (   0.1734543   1.0004587   1.2416603  )
       165           Sn  tau( 165) = (   0.2599830   1.0072736   1.2510585  )
       166           Sn  tau( 166) = (   0.2922808   0.9563532   0.0265553  )
       167           Sn  tau( 167) = (   0.3351412   0.8853534   0.0172509  )
       168           Sn  tau( 168) = (   0.3694024   0.9463980   0.0382430  )
       169           Sn  tau( 169) = (   0.4167843   0.9863752   1.2557136  )
       170           Sn  tau( 170) = (   0.4634076   0.9279341   0.0138374  )
       171           Sn  tau( 171) = (   0.5260928   0.9225306   0.0408497  )
       172           Sn  tau( 172) = (   0.5597793   0.9785622   0.0238773  )
       173           Sn  tau( 173) = (   0.6214564   0.9807750   1.2546273  )
       174           Sn  tau( 174) = (   0.6669809   0.9253584   1.2588362  )
       175           Sn  tau( 175) = (   0.7376026   0.9363369   1.2553733  )
       176           Sn  tau( 176) = (   0.7549978   0.9912167   0.0393875  )
       177           Sn  tau( 177) = (   0.8034508   0.9688086   1.2423080  )
       178           Sn  tau( 178) = (   0.8511553   0.9274351   0.0130678  )
       179           Sn  tau( 179) = (   0.9156879   0.8850334   1.2501966  )
       180           Sn  tau( 180) = (   0.9197734   0.9608242   1.2502445  )
       181           Sn  tau( 181) = (   0.9398603   1.0441105   0.0131550  )
       182           Sn  tau( 182) = (   0.0092505   1.0169642   0.0255847  )
       183           Sn  tau( 183) = (   0.0783319   1.0352920   0.0136552  )
       184           Sn  tau( 184) = (   0.1510283   1.0694977   0.0065291  )
       185           Sn  tau( 185) = (   0.2195176   1.0699034   0.0023060  )
       186           Sn  tau( 186) = (   0.2994687   1.0760429   1.2601291  )
       187           Sn  tau( 187) = (   0.3407792   1.0138995   0.0018147  )
       188           Sn  tau( 188) = (   0.3634343   1.0758942   0.0392373  )
       189           Sn  tau( 189) = (   0.4204765   1.0970976   1.2616010  )
       190           Sn  tau( 190) = (   0.4552468   1.0403905   0.0231455  )
       191           Sn  tau( 191) = (   0.5235246   1.0316073   1.2605778  )
       192           Sn  tau( 192) = (   0.5457891   1.0912732   0.0372107  )
       193           Sn  tau( 193) = (   0.6134796   1.0914244   0.0263763  )
       194           Sn  tau( 194) = (   0.6492429   1.0339637   0.0320211  )
       195           Sn  tau( 195) = (   0.7151567   1.0423539   0.0022304  )
       196           Sn  tau( 196) = (   0.7479585   1.0993810   0.0222676  )
       197           Sn  tau( 197) = (   0.8089350   1.1322661   1.2516029  )
       198           Sn  tau( 198) = (   0.8045950   1.0372956   0.0055172  )
       199           Sn  tau( 199) = (   0.8708188   1.0071048   0.0129631  )
       200           Sn  tau( 200) = (   0.9323271   1.1331482  -0.0032349  )

   Crystallographic axes

     site n.     atom                  positions (cryst. coord.)
         1           Sn  tau(   1) = (  0.0030659  0.0153547  0.0034484  )
         2           Sn  tau(   2) = (  0.0040128  0.9451739  0.0156010  )
         3           Sn  tau(   3) = (  0.0677848  0.9800811  0.9889320  )
         4           Sn  tau(   4) = (  0.1288382  0.9873013  0.0191871  )
         5           Sn  tau(   5) = (  0.1919330  0.0196061  0.0208442  )
         6           Sn  tau(   6) = (  0.2485302  0.9834860  0.0261692  )
         7           Sn  tau(   7) = (  0.3179502  0.9814387  0.0391312  )
         8           Sn  tau(   8) = (  0.3506991  0.0333544  0.0269984  )
         9           Sn  tau(   9) = (  0.4203001  0.0491953  0.0227604  )
        10           Sn  tau(  10) = (  0.4560331  0.9969203  0.0215570  )
        11           Sn  tau(  11) = (  0.5233810  0.9997686  0.0071252  )
        12           Sn  tau(  12) = (  0.5570019  0.0527820  0.0112923  )
        13           Sn  tau(  13) = (  0.6264693  0.0498167  0.0138028  )
        14           Sn  tau(  14) = (  0.6509517  0.9961738  0.0286844  )
        15           Sn  tau(  15) = (  0.7070791 -0.0023654 -0.0036894  )
        16           Sn  tau(  16) = (  0.7356695  0.0549880  0.0103691  )
        17           Sn  tau(  17) = (  0.8040759  0.0491370  1.0013820  )
        18           Sn  tau(  18) = (  0.8726990  0.0190246  0.9969300  )
        19           Sn  tau(  19) = (  0.8721142  0.9411491  0.0052115  )
        20           Sn  tau(  20) = (  0.9318331  0.0554673  0.0064954  )
        21           Sn  tau(  21) = (  0.9361882  0.1255615  0.9958380  )
        22           Sn  tau(  22) = (  0.0074528  0.0814771  0.9919780  )
        23           Sn  tau(  23) = (  0.0771226  0.0433099  0.0034193  )
        24           Sn  tau(  24) = (  0.0661030  0.1165124  0.0135100  )
        25           Sn  tau(  25) = (  0.1363402  0.0879277  0.0101297  )
        26           Sn  tau(  26) = (  0.2328271  0.0649173  0.0039464  )
        27           Sn  tau(  27) = (  0.2932083  0.0684530  0.0388162  )
        28           Sn  tau(  28) = (  0.3638653  0.0934036  0.0085059  )
        29           Sn  tau(  29) = (  0.4201539  0.1526447  0.0278328  )
        30           Sn  tau(  30) = (  0.4538127  0.1005038  0.0211510  )
        31           Sn  tau(  31) = (  0.5231163  0.0987965  0.0350292  )
        32           Sn  tau(  32) = (  0.5614906  0.1487854  0.0236100  )
        33           Sn  tau(  33) = (  0.6269381  0.1554575  0.0054887  )
        34           Sn  tau(  34) = (  0.6601155  0.1054071  0.0145082  )
        35           Sn  tau(  35) = (  0.7158447  0.1089615  0.9828260  )
        36           Sn  tau(  36) = (  0.7247843  0.1637385  0.0173385  )
        37           Sn  tau(  37) = (  0.7991663  0.1906517  0.0011060  )
        38           Sn  tau(  38) = (  0.7863202  0.1213730  0.0074877  )
        39           Sn  tau(  39) = (  0.8595530  0.0939525  0.0080695  )
        40           Sn  tau(  40) = (  0.8615340  0.1620007  0.0029579  )
        41           Sn  tau(  41) = (  1.0004159  0.1605808  0.0059139  )
        42           Sn  tau(  42) = (  0.0733900  0.1927311  0.0077459  )
        43           Sn  tau(  43) = (  0.1253690  0.2410042  1.0006340  )
        44           Sn  tau(  44) = (  0.0482829  0.2573152  1.0046340  )
        45           Sn  tau(  45) = (  0.1841339  0.1876970  0.0110556  )
        46           Sn  tau(  46) = (  0.1261878  0.1528920  0.0281820  )
        47           Sn  tau(  47) = (  0.1974754  0.1225228  0.0139620  )
        48           Sn  tau(  48) = (  0.2918397  0.1270276  0.0113280  )
        49           Sn  tau(  49) = (  0.3505681  0.1583868  0.0252312  )
        50           Sn  tau(  50) = (  0.4573538  0.2015890  0.0131093  )
        51           Sn  tau(  51) = (  0.5271161  0.2032770  0.0248040  )
        52           Sn  tau(  52) = (  0.5783490  0.2422636  0.0441110  )
        53           Sn  tau(  53) = (  0.6152766  0.2558724  0.9940260  )
        54           Sn  tau(  54) = (  0.6580766  0.2085014  0.0187144  )
        55           Sn  tau(  55) = (  0.7174224  0.2166281  0.9857980  )
        56           Sn  tau(  56) = (  0.7470412  0.2644961  0.0154584  )
        57           Sn  tau(  57) = (  0.8033702  0.2616303  0.9794580  )
        58           Sn  tau(  58) = (  0.8643895  0.2348557  0.0040384  )
        59           Sn  tau(  59) = (  0.9254491  0.1952193  0.0154465  )
        60           Sn  tau(  60) = (  0.9291061  0.2739121  0.9983220  )
        61           Sn  tau(  61) = (  1.0038586  0.3090222  0.0034406  )
        62           Sn  tau(  62) = (  0.9880411  0.2267296  0.0038065  )
        63           Sn  tau(  63) = (  0.0667921  0.3620585  0.0049551  )
        64           Sn  tau(  64) = (  0.1045978  0.3086141  0.9900200  )
        65           Sn  tau(  65) = (  0.2675918  0.4474701  0.9919440  )
        66           Sn  tau(  66) = (  0.1366539  0.3704333  0.9873400  )
        67           Sn  tau(  67) = (  0.2404752  0.1621454  0.0433558  )
        68           Sn  tau(  68) = (  0.4913427  0.3979064  0.0175026  )
        69           Sn  tau(  69) = (  0.4665302  0.4633576  0.0369944  )
        70           Sn  tau(  70) = (  0.5047432  0.2635554  0.0324498  )
        71           Sn  tau(  71) = (  0.5651778  0.3046918  0.0173845  )
        72           Sn  tau(  72) = (  0.5528938  0.4096709  0.0427846  )
        73           Sn  tau(  73) = (  0.6073175  0.3653368  0.0216700  )
        74           Sn  tau(  74) = (  0.6425994  0.3055147  0.0293814  )
        75           Sn  tau(  75) = (  0.7112703  0.3170587  0.0070103  )
        76           Sn  tau(  76) = (  0.7227050  0.3798624  0.0074891  )
        77           Sn  tau(  77) = (  0.7865143  0.4057378  0.9908680  )
        78           Sn  tau(  78) = (  0.7863102  0.3342842  0.9901000  )
        79           Sn  tau(  79) = (  0.8596866  0.3025878  0.0013966  )
        80           Sn  tau(  80) = (  0.9309837  0.3419497  0.9909280  )
        81           Sn  tau(  81) = (  0.9959826  0.3779722  0.9972200  )
        82           Sn  tau(  82) = (  0.0620156  0.4253074 -0.0007880  )
        83           Sn  tau(  83) = (  0.1207008  0.4131631  0.0344702  )
        84           Sn  tau(  84) = (  0.1225893  0.4658458  0.9986360  )
        85           Sn  tau(  85) = (  0.1844368  0.4263551  0.9975120  )
        86           Sn  tau(  86) = (  0.2899520  0.4886851  0.0345988  )
        87           Sn  tau(  87) = (  0.4156955  0.4239040  0.0060672  )
        88           Sn  tau(  88) = (  0.3427853  0.4622728  0.9869520  )
        89           Sn  tau(  89) = (  0.4940899  0.4910206  0.9793080  )
        90           Sn  tau(  90) = (  0.4204261  0.4938864  0.0008655  )
        91           Sn  tau(  91) = (  0.5386213  0.4390691  0.9849380  )
        92           Sn  tau(  92) = (  0.5422455  0.4866684  0.0369032  )
        93           Sn  tau(  93) = (  0.5895291  0.5324299  0.0000877  )
        94           Sn  tau(  94) = (  0.6029044  0.4537998  0.0266738  )
        95           Sn  tau(  95) = (  0.6581749  0.4136499  0.0187137  )
        96           Sn  tau(  96) = (  0.7236879  0.4489128  0.0103939  )
        97           Sn  tau(  97) = (  0.7961117  0.4771913  0.0010744  )
        98           Sn  tau(  98) = (  0.8549937  0.3710467  0.9988360  )
        99           Sn  tau(  99) = (  0.9238764  0.4106553  0.9917720  )
       100           Sn  tau( 100) = (  0.8576854  0.4407279  1.0004620  )
       101           Sn  tau( 101) = (  0.9851478  0.5203751 -0.0046007  )
       102           Sn  tau( 102) = (  0.9936286  0.4489761  0.9926460  )
       103           Sn  tau( 103) = (  0.0546958  0.4945281  0.0057975  )
       104           Sn  tau( 104) = (  0.1342032  0.5297146  0.0032807  )
       105           Sn  tau( 105) = (  0.2180525  0.4912323  0.0077755  )
       106           Sn  tau( 106) = (  0.2642045  0.5458510  0.0112827  )
       107           Sn  tau( 107) = (  0.3458627  0.5239219  0.0087345  )
       108           Sn  tau( 108) = (  0.2613843  0.6089384  0.0177849  )
       109           Sn  tau( 109) = (  0.3422284  0.5987323  0.0003388  )
       110           Sn  tau( 110) = (  0.4112572  0.5598811  0.0067137  )
       111           Sn  tau( 111) = (  0.4839632  0.5308343  0.0275094  )
       112           Sn  tau( 112) = (  0.5261054  0.5763689  0.0418424  )
       113           Sn  tau( 113) = (  0.5769427  0.5972372  0.0064035  )
       114           Sn  tau( 114) = (  0.6562645  0.5582441  0.0017251  )
       115           Sn  tau( 115) = (  0.6594754  0.4894905  0.9973100  )
       116           Sn  tau( 116) = (  0.7267451  0.5236600  0.0088532  )
       117           Sn  tau( 117) = (  0.7939139  0.5538155  0.9938400  )
       118           Sn  tau( 118) = (  0.8567958  0.5173783  0.0096532  )
       119           Sn  tau( 119) = (  0.9222130  0.4833595  0.9923020  )
       120           Sn  tau( 120) = (  0.9214998  0.5510348  0.9936180  )
       121           Sn  tau( 121) = (  0.9832450  0.5847262  0.9966820  )
       122           Sn  tau( 122) = (  0.0563005  0.5595995  0.0059484  )
       123           Sn  tau( 123) = (  0.1179358  0.6000113  0.0129038  )
       124           Sn  tau( 124) = (  0.0788836  0.6658336  0.0112601  )
       125           Sn  tau( 125) = (  0.1900301  0.6302869  0.0155696  )
       126           Sn  tau( 126) = (  0.1917286  0.5677867  0.0233682  )
       127           Sn  tau( 127) = (  0.3199085  0.6540058  0.0314542  )
       128           Sn  tau( 128) = (  0.3672274  0.7124071  0.0272574  )
       129           Sn  tau( 129) = (  0.4390941  0.6940182  0.0261590  )
       130           Sn  tau( 130) = (  0.3812075  0.6563129  0.9967920  )
       131           Sn  tau( 131) = (  0.4207286  0.6178109  0.0293378  )
       132           Sn  tau( 132) = (  0.4859442  0.6271505  0.0468000  )
       133           Sn  tau( 133) = (  0.5950662  0.6554988  0.0101812  )
       134           Sn  tau( 134) = (  0.6642867  0.6293375  0.0090245  )
       135           Sn  tau( 135) = (  0.7239626  0.5928239  0.9898440  )
       136           Sn  tau( 136) = (  0.7856977  0.6970194  0.0038869  )
       137           Sn  tau( 137) = (  0.7893219  0.6225145  1.0006920  )
       138           Sn  tau( 138) = (  0.8548400  0.5883516  0.0135919  )
       139           Sn  tau( 139) = (  0.9194835  0.6184220  0.0103437  )
       140           Sn  tau( 140) = (  0.9873203  0.6455677  0.0184021  )
       141           Sn  tau( 141) = (  0.9820352  0.7408776  0.0059694  )
       142           Sn  tau( 142) = (  0.0444409  0.6220125  0.9794720  )
       143           Sn  tau( 143) = (  0.0289793  0.7042309  0.0441274  )
       144           Sn  tau( 144) = (  0.0514184  0.7258915  0.9875040  )
       145           Sn  tau( 145) = (  0.2216755  0.8181435  0.9932500  )
       146           Sn  tau( 146) = (  0.2582944  0.6733223  0.0120979  )
       147           Sn  tau( 147) = (  0.2619664  0.7691801  0.0020129  )
       148           Sn  tau( 148) = (  0.4092611  0.7611850  0.0108060  )
       149           Sn  tau( 149) = (  0.4916779  0.7368157  0.0045099  )
       150           Sn  tau( 150) = (  0.5096276  0.6680010  0.0036866  )
       151           Sn  tau( 151) = (  0.5567852  0.7066689  0.0289112  )
       152           Sn  tau( 152) = (  0.5666245  0.7607266  1.0001940  )
       153           Sn  tau( 153) = (  0.6360818  0.7456489  0.0154237  )
       154           Sn  tau( 154) = (  0.6604129  0.6948913  0.9898700  )
       155           Sn  tau( 155) = (  0.7220976  0.6709345  0.0155721  )
       156           Sn  tau( 156) = (  0.7197865  0.7402992  0.0055848  )
       157           Sn  tau( 157) = (  0.7900831  0.7645092  0.0102221  )
       158           Sn  tau( 158) = (  0.8521534  0.6621275  0.0096549  )
       159           Sn  tau( 159) = (  0.9213914  0.6961310  0.0031101  )
       160           Sn  tau( 160) = (  0.8527734  0.7310491  0.9983040  )
       161           Sn  tau( 161) = (  0.9865415  0.8193047  0.0145781  )
       162           Sn  tau( 162) = (  0.0440642  0.7886275  0.0034304  )
       163           Sn  tau( 163) = (  0.0978272  0.8416398  0.9850700  )
       164           Sn  tau( 164) = (  0.1734543  0.8664216  0.9853220  )
       165           Sn  tau( 165) = (  0.2599830  0.8723235  0.9927800  )
       166           Sn  tau( 166) = (  0.2922808  0.8282252  0.0210730  )
       167           Sn  tau( 167) = (  0.3351412  0.7667377  0.0136895  )
       168           Sn  tau( 168) = (  0.3694024  0.8196037  0.0303478  )
       169           Sn  tau( 169) = (  0.4167843  0.8542250  0.9964740  )
       170           Sn  tau( 170) = (  0.4634076  0.8036136  0.0109807  )
       171           Sn  tau( 171) = (  0.5260928  0.7989340  0.0324164  )
       172           Sn  tau( 172) = (  0.5597793  0.8474587  0.0189479  )
       173           Sn  tau( 173) = (  0.6214564  0.8493751  0.9956120  )
       174           Sn  tau( 174) = (  0.6669809  0.8013829  0.9989520  )
       175           Sn  tau( 175) = (  0.7376026  0.8108906  0.9962040  )
       176           Sn  tau( 176) = (  0.7549978  0.8584178  0.0312560  )
       177           Sn  tau( 177) = (  0.8034508  0.8390119  0.9858360  )
       178           Sn  tau( 178) = (  0.8511553  0.8031814  0.0103700  )
       179           Sn  tau( 179) = (  0.9156879  0.7664605  0.9920960  )
       180           Sn  tau( 180) = (  0.9197734  0.8320972  0.9921340  )
       181           Sn  tau( 181) = (  0.9398603  0.9042252  0.0104392  )
       182           Sn  tau( 182) = (  0.0092505  0.8807158  0.0203028  )
       183           Sn  tau( 183) = (  0.0783319  0.8965881  0.0108361  )
       184           Sn  tau( 184) = (  0.1510283  0.9262110  0.0051812  )
       185           Sn  tau( 185) = (  0.2195176  0.9265625  0.0018299  )
       186           Sn  tau( 186) = (  0.2994687  0.9318794  0.9999780  )
       187           Sn  tau( 187) = (  0.3407792  0.8780617  0.0014401  )
       188           Sn  tau( 188) = (  0.3634343  0.9317506  0.0311368  )
       189           Sn  tau( 189) = (  0.4204765  0.9501133  1.0011460  )
       190           Sn  tau( 190) = (  0.4552468  0.9010036  0.0183671  )
       191           Sn  tau( 191) = (  0.5235246  0.8933970  1.0003340  )
       192           Sn  tau( 192) = (  0.5457891  0.9450692  0.0295286  )
       193           Sn  tau( 193) = (  0.6134796  0.9452001  0.0209310  )
       194           Sn  tau( 194) = (  0.6492429  0.8954378  0.0254104  )
       195           Sn  tau( 195) = (  0.7151567  0.9027039  0.0017699  )
       196           Sn  tau( 196) = (  0.7479585  0.9520908  0.0176705  )
       197           Sn  tau( 197) = (  0.8089350  0.9805700  0.9932120  )
       198           Sn  tau( 198) = (  0.8045950  0.8983233  0.0043782  )
       199           Sn  tau( 199) = (  0.8708188  0.8721773  0.0102869  )
       200           Sn  tau( 200) = (  0.9323271  0.9813340 -0.0025671  )

     number of k points=     1  Marzari-Vanderbilt smearing, width (Ry)=  0.0200
                       cart. coord. in units 2pi/alat
        k(    1) = (   0.0000000   0.0000000   0.0000000), wk =   2.0000000

                       cryst. coord.
        k(    1) = (   0.0000000   0.0000000   0.0000000), wk =   2.0000000

     Dense  grid: 41432170 G-vectors     FFT dimensions: ( 480, 576, 625)

     Smooth grid: 14648303 G-vectors     FFT dimensions: ( 360, 400, 432)

     Dynamical RAM for                 wfc:     104.77 MB

     Dynamical RAM for     wfc (w. buffer):     104.77 MB

     Dynamical RAM for           str. fact:       1.41 MB

     Dynamical RAM for           local pot:       0.00 MB

     Dynamical RAM for          nlocal pot:     224.51 MB

     Dynamical RAM for                qrad:      19.12 MB

     Dynamical RAM for          rho,v,vnew:      16.89 MB

     Dynamical RAM for               rhoin:       5.63 MB

     Dynamical RAM for            rho*nmix:      22.58 MB

     Dynamical RAM for           G-vectors:       5.54 MB

     Dynamical RAM for          h,s,v(r/c):       5.27 MB

     Dynamical RAM for          <psi|beta>:      46.14 MB

     Dynamical RAM for                 psi:     419.08 MB

     Dynamical RAM for                hpsi:     419.08 MB

     Dynamical RAM for                spsi:     419.08 MB

     Dynamical RAM for      wfcinit/wfcrot:     298.68 MB

     Dynamical RAM for           addusdens:     544.66 MB

     Dynamical RAM for          addusforce:    1107.74 MB

     Dynamical RAM for         addusstress:     283.62 MB

     Estimated static dynamical RAM per process >     424.36 MB

     Estimated max dynamical RAM per process >       1.69 GB

     Estimated total dynamical RAM >     758.19 GB

     Initial potential from superposition of free atoms

     starting charge 2599.99167, renormalised to 2800.00000

     negative rho (up, down):  1.867E-01 0.000E+00
     Starting wfcs are 1800 atomic wfcs

     total cpu time spent up to now is      112.9 secs

     Self-consistent Calculation

     iteration #  1     ecut=    50.00 Ry     beta= 0.40
     Davidson diagonalization with overlap
     ethr =  1.00E-02,  avg # of iterations =  8.0

     negative rho (up, down):  3.014E+00 0.000E+00

     total cpu time spent up to now is      770.6 secs

     total energy              =  -31817.93912543 Ry
     Harris-Foulkes estimate   =  -31885.57534890 Ry
     estimated scf accuracy    <     279.67603274 Ry

     iteration #  2     ecut=    50.00 Ry     beta= 0.40
     Davidson diagonalization with overlap
     ethr =  9.99E-03,  avg # of iterations =  1.0

     negative rho (up, down):  1.108E+01 0.000E+00

     total cpu time spent up to now is     1088.8 secs

     total energy              =  -31741.90793806 Ry
     Harris-Foulkes estimate   =  -31824.05087128 Ry
     estimated scf accuracy    <     141.02473222 Ry

     iteration #  3     ecut=    50.00 Ry     beta= 0.40
     Davidson diagonalization with overlap
     ethr =  5.04E-03,  avg # of iterations =  3.0

     negative rho (up, down):  1.097E+01 0.000E+00

     total cpu time spent up to now is     1423.8 secs

     total energy              =  -31774.65854997 Ry
     Harris-Foulkes estimate   =  -31777.31409169 Ry
     estimated scf accuracy    <       7.70482901 Ry

     iteration #  4     ecut=    50.00 Ry     beta= 0.40
     Davidson diagonalization with overlap
     ethr =  2.75E-04,  avg # of iterations = 14.0

     negative rho (up, down):  1.172E+01 0.000E+00

     total cpu time spent up to now is     1834.6 secs

     total energy              =  -31774.18854410 Ry
     Harris-Foulkes estimate   =  -31775.52184435 Ry
     estimated scf accuracy    <       4.38998160 Ry

     iteration #  5     ecut=    50.00 Ry     beta= 0.40
     Davidson diagonalization with overlap
     ethr =  1.57E-04,  avg # of iterations = 10.0

     negative rho (up, down):  1.013E+01 0.000E+00

     total cpu time spent up to now is     2132.2 secs

     total energy              =  -31774.01867956 Ry
     Harris-Foulkes estimate   =  -31774.43338945 Ry
     estimated scf accuracy    <       1.61355738 Ry

     iteration #  6     ecut=    50.00 Ry     beta= 0.40
     Davidson diagonalization with overlap
     ethr =  5.76E-05,  avg # of iterations = 14.0

     negative rho (up, down):  8.092E+00 0.000E+00

     total cpu time spent up to now is     2447.2 secs

     total energy              =  -31773.70070578 Ry
     Harris-Foulkes estimate   =  -31774.27757959 Ry
     estimated scf accuracy    <       1.28857142 Ry

     iteration #  7     ecut=    50.00 Ry     beta= 0.40
     Davidson diagonalization with overlap
     ethr =  4.60E-05,  avg # of iterations = 20.0

     negative rho (up, down):  6.062E+00 0.000E+00

     total cpu time spent up to now is     2748.7 secs

     total energy              =  -31773.61216870 Ry
     Harris-Foulkes estimate   =  -31773.75064918 Ry
     estimated scf accuracy    <       0.71387938 Ry

     iteration #  8     ecut=    50.00 Ry     beta= 0.40
     Davidson diagonalization with overlap
     c_bands:  4 eigenvalues not converged
     ethr =  2.55E-05,  avg # of iterations = 20.0

     negative rho (up, down):  5.822E+00 0.000E+00

     total cpu time spent up to now is     3048.3 secs

     total energy              =  -31773.60201704 Ry
     Harris-Foulkes estimate   =  -31773.64443422 Ry
     estimated scf accuracy    <       0.54493333 Ry

     iteration #  9     ecut=    50.00 Ry     beta= 0.40
     Davidson diagonalization with overlap
     ethr =  1.95E-05,  avg # of iterations =  5.0

     negative rho (up, down):  5.921E+00 0.000E+00

     total cpu time spent up to now is     3264.5 secs

     total energy              =  -31773.62517698 Ry
     Harris-Foulkes estimate   =  -31773.60641026 Ry
     estimated scf accuracy    <       0.49271576 Ry

     iteration # 10     ecut=    50.00 Ry     beta= 0.40
     Davidson diagonalization with overlap
     ethr =  1.76E-05,  avg # of iterations =  1.0

     negative rho (up, down):  4.613E+00 0.000E+00

     total cpu time spent up to now is     3479.0 secs

     total energy              =  -31773.53951647 Ry
     Harris-Foulkes estimate   =  -31773.62653940 Ry
     estimated scf accuracy    <       0.52201070 Ry

     iteration # 11     ecut=    50.00 Ry     beta= 0.40
     Davidson diagonalization with overlap
     ethr =  1.76E-05,  avg # of iterations = 28.0

     negative rho (up, down):  3.911E+00 0.000E+00

     total cpu time spent up to now is     3944.2 secs

     total energy              =  -31773.47444761 Ry
     Harris-Foulkes estimate   =  -31773.55034277 Ry
     estimated scf accuracy    <       0.43670221 Ry

     iteration # 12     ecut=    50.00 Ry     beta= 0.40
     Davidson diagonalization with overlap
     c_bands:  2 eigenvalues not converged
     ethr =  1.56E-05,  avg # of iterations = 40.0

     negative rho (up, down):  3.536E+00 0.000E+00

     total cpu time spent up to now is     4416.1 secs

     total energy              =  -31773.36907051 Ry
     Harris-Foulkes estimate   =  -31773.48417546 Ry
     estimated scf accuracy    <       0.30934649 Ry

     iteration # 13     ecut=    50.00 Ry     beta= 0.40
     Davidson diagonalization with overlap
     c_bands:  1 eigenvalues not converged
     ethr =  1.10E-05,  avg # of iterations = 40.0

     negative rho (up, down):  3.469E+00 0.000E+00

     total cpu time spent up to now is     4906.2 secs

     total energy              =  -31773.29953319 Ry
     Harris-Foulkes estimate   =  -31773.37776470 Ry
     estimated scf accuracy    <       0.20013497 Ry

     iteration # 14     ecut=    50.00 Ry     beta= 0.40
     Davidson diagonalization with overlap
     c_bands:  4 eigenvalues not converged
     ethr =  7.15E-06,  avg # of iterations = 40.0

     negative rho (up, down):  2.806E+00 0.000E+00

     total cpu time spent up to now is     5383.2 secs

     total energy              =  -31773.21937639 Ry
     Harris-Foulkes estimate   =  -31773.30634125 Ry
     estimated scf accuracy    <       0.13499554 Ry

     iteration # 15     ecut=    50.00 Ry     beta= 0.40
     Davidson diagonalization with overlap
     ethr =  4.82E-06,  avg # of iterations = 55.0

     negative rho (up, down):  2.537E+00 0.000E+00

     total cpu time spent up to now is     6034.1 secs

     total energy              =  -31773.20946561 Ry
     Harris-Foulkes estimate   =  -31773.22510148 Ry
     estimated scf accuracy    <       0.07168850 Ry

     iteration # 16     ecut=    50.00 Ry     beta= 0.40
     Davidson diagonalization with overlap
     c_bands:  3 eigenvalues not converged
     ethr =  2.56E-06,  avg # of iterations = 60.0

     negative rho (up, down):  1.765E+00 0.000E+00

     total cpu time spent up to now is     6742.2 secs

     total energy              =  -31773.17420339 Ry
     Harris-Foulkes estimate   =  -31773.20977476 Ry
     estimated scf accuracy    <       0.05385500 Ry

     iteration # 17     ecut=    50.00 Ry     beta= 0.40
     Davidson diagonalization with overlap
     ethr =  1.92E-06,  avg # of iterations = 49.0

     negative rho (up, down):  1.438E+00 0.000E+00

     total cpu time spent up to now is     7465.0 secs

     total energy              =  -31773.17181464 Ry
     Harris-Foulkes estimate   =  -31773.17646825 Ry
     estimated scf accuracy    <       0.01802874 Ry

     iteration # 18     ecut=    50.00 Ry     beta= 0.40
     Davidson diagonalization with overlap
     c_bands:  2 eigenvalues not converged
     ethr =  6.44E-07,  avg # of iterations = 40.0

     negative rho (up, down):  6.730E-01 0.000E+00

     total cpu time spent up to now is     7997.2 secs

     total energy              =  -31773.15878672 Ry
     Harris-Foulkes estimate   =  -31773.17497424 Ry
     estimated scf accuracy    <       0.01652472 Ry

     iteration # 19     ecut=    50.00 Ry     beta= 0.40
     Davidson diagonalization with overlap
     c_bands:  1 eigenvalues not converged
     ethr =  5.90E-07,  avg # of iterations = 40.0

     negative rho (up, down):  3.255E-01 0.000E+00

     total cpu time spent up to now is     8574.2 secs

     total energy              =  -31773.16257288 Ry
     Harris-Foulkes estimate   =  -31773.16282690 Ry
     estimated scf accuracy    <       0.00559220 Ry

     iteration # 20     ecut=    50.00 Ry     beta= 0.40
     Davidson diagonalization with overlap
     c_bands:  5 eigenvalues not converged
     ethr =  2.00E-07,  avg # of iterations = 20.0

     negative rho (up, down):  1.665E-01 0.000E+00

     total cpu time spent up to now is     8977.8 secs

     total energy              =  -31773.16190569 Ry
     Harris-Foulkes estimate   =  -31773.16583867 Ry
     estimated scf accuracy    <       0.00631535 Ry

     iteration # 21     ecut=    50.00 Ry     beta= 0.40
     Davidson diagonalization with overlap
     c_bands:  1 eigenvalues not converged
     ethr =  2.00E-07,  avg # of iterations = 20.0

     negative rho (up, down):  9.805E-02 0.000E+00

     total cpu time spent up to now is     9398.6 secs

     total energy              =  -31773.16384107 Ry
     Harris-Foulkes estimate   =  -31773.16305630 Ry
     estimated scf accuracy    <       0.00058768 Ry

     iteration # 22     ecut=    50.00 Ry     beta= 0.40
     Davidson diagonalization with overlap
     ethr =  2.10E-08,  avg # of iterations = 20.0

     negative rho (up, down):  6.018E-02 0.000E+00

     total cpu time spent up to now is     9831.0 secs

     total energy              =  -31773.16400428 Ry
     Harris-Foulkes estimate   =  -31773.16387694 Ry
     estimated scf accuracy    <       0.00014530 Ry

     iteration # 23     ecut=    50.00 Ry     beta= 0.40
     Davidson diagonalization with overlap
     ethr =  5.19E-09,  avg # of iterations =  2.0

     negative rho (up, down):  4.691E-02 0.000E+00

     total cpu time spent up to now is    10177.8 secs

     total energy              =  -31773.16406204 Ry
     Harris-Foulkes estimate   =  -31773.16401540 Ry
     estimated scf accuracy    <       0.00005840 Ry

     iteration # 24     ecut=    50.00 Ry     beta= 0.40
     Davidson diagonalization with overlap
     ethr =  2.09E-09,  avg # of iterations =  2.0

     negative rho (up, down):  4.119E-02 0.000E+00

     total cpu time spent up to now is    10574.4 secs

     total energy              =  -31773.16403582 Ry
     Harris-Foulkes estimate   =  -31773.16406359 Ry
     estimated scf accuracy    <       0.00003300 Ry

     iteration # 25     ecut=    50.00 Ry     beta= 0.40
     Davidson diagonalization with overlap
     ethr =  1.18E-09,  avg # of iterations =  2.0

     negative rho (up, down):  4.181E-02 0.000E+00

     total cpu time spent up to now is    10905.4 secs

     total energy              =  -31773.16403369 Ry
     Harris-Foulkes estimate   =  -31773.16403808 Ry
     estimated scf accuracy    <       0.00000491 Ry

     iteration # 26     ecut=    50.00 Ry     beta= 0.40
     Davidson diagonalization with overlap
     ethr =  1.75E-10,  avg # of iterations =  3.0

     negative rho (up, down):  4.046E-02 0.000E+00

     total cpu time spent up to now is    11337.7 secs

     total energy              =  -31773.16403631 Ry
     Harris-Foulkes estimate   =  -31773.16403466 Ry
     estimated scf accuracy    <       0.00000209 Ry

     iteration # 27     ecut=    50.00 Ry     beta= 0.40
     Davidson diagonalization with overlap
     ethr =  7.48E-11,  avg # of iterations =  2.0

     negative rho (up, down):  4.037E-02 0.000E+00

     total cpu time spent up to now is    11667.8 secs

     total energy              =  -31773.16403653 Ry
     Harris-Foulkes estimate   =  -31773.16403649 Ry
     estimated scf accuracy    <       0.00000073 Ry

     iteration # 28     ecut=    50.00 Ry     beta= 0.40
     Davidson diagonalization with overlap
     ethr =  2.59E-11,  avg # of iterations =  2.0

     negative rho (up, down):  4.030E-02 0.000E+00

     total cpu time spent up to now is    11978.2 secs

     total energy              =  -31773.16403719 Ry
     Harris-Foulkes estimate   =  -31773.16403660 Ry
     estimated scf accuracy    <       0.00000016 Ry

     iteration # 29     ecut=    50.00 Ry     beta= 0.40
     Davidson diagonalization with overlap
     ethr =  5.67E-12,  avg # of iterations =  2.0

     negative rho (up, down):  4.035E-02 0.000E+00

     total cpu time spent up to now is    12353.8 secs

     total energy              =  -31773.16403711 Ry
     Harris-Foulkes estimate   =  -31773.16403720 Ry
     estimated scf accuracy    <       0.00000008 Ry

     iteration # 30     ecut=    50.00 Ry     beta= 0.40
     Davidson diagonalization with overlap
     ethr =  3.01E-12,  avg # of iterations =  3.0

     negative rho (up, down):  4.045E-02 0.000E+00

     total cpu time spent up to now is    12692.7 secs

     total energy              =  -31773.16403668 Ry
     Harris-Foulkes estimate   =  -31773.16403713 Ry
     estimated scf accuracy    <       0.00000005 Ry

     iteration # 31     ecut=    50.00 Ry     beta= 0.40
     Davidson diagonalization with overlap
     ethr =  1.66E-12,  avg # of iterations =  2.0

     negative rho (up, down):  4.019E-02 0.000E+00

     total cpu time spent up to now is    12859.3 secs

     End of self-consistent calculation

          k = 0.0000 0.0000 0.0000 (****** PWs)   bands (ev):

   -25.1360 -25.0968 -25.0952 -25.0794 -25.0703 -25.0668 -25.0656 -25.0572
   -25.0556 -25.0543 -25.0513 -25.0513 -25.0482 -25.0441 -25.0407 -25.0363
   -25.0340 -25.0299 -25.0290 -25.0255 -25.0232 -25.0222 -25.0203 -25.0160
   -25.0129 -25.0126 -25.0097 -25.0067 -25.0043 -25.0030 -25.0018 -25.0006
   -25.0003 -25.0000 -24.9979 -24.9937 -24.9928 -24.9927 -24.9924 -24.9907
   -24.9885 -24.9878 -24.9867 -24.9863 -24.9846 -24.9830 -24.9810 -24.9805
   -24.9798 -24.9792 -24.9785 -24.9771 -24.9762 -24.9756 -24.9751 -24.9740
   -24.9711 -24.9709 -24.9702 -24.9692 -24.9681 -24.9671 -24.9652 -24.9640
   -24.9637 -24.9628 -24.9623 -24.9609 -24.9585 -24.9570 -24.9556 -24.9552
   -24.9538 -24.9529 -24.9524 -24.9522 -24.9506 -24.9500 -24.9495 -24.9493
   -24.9484 -24.9480 -24.9470 -24.9467 -24.9456 -24.9452 -24.9446 -24.9435
   -24.9429 -24.9426 -24.9421 -24.9419 -24.9410 -24.9409 -24.9396 -24.9392
   -24.9386 -24.9382 -24.9376 -24.9369 -24.9364 -24.9360 -24.9340 -24.9338
   -24.9333 -24.9323 -24.9314 -24.9310 -24.9299 -24.9297 -24.9294 -24.9286
   -24.9279 -24.9277 -24.9269 -24.9256 -24.9253 -24.9247 -24.9235 -24.9235
   -24.9227 -24.9216 -24.9208 -24.9205 -24.9200 -24.9197 -24.9193 -24.9189
   -24.9180 -24.9177 -24.9175 -24.9166 -24.9161 -24.9160 -24.9153 -24.9149
   -24.9144 -24.9136 -24.9129 -24.9124 -24.9117 -24.9111 -24.9106 -24.9098
   -24.9095 -24.9088 -24.9079 -24.9076 -24.9073 -24.9066 -24.9062 -24.9061
   -24.9051 -24.9049 -24.9046 -24.9040 -24.9036 -24.9031 -24.9027 -24.9026
   -24.9013 -24.9011 -24.9007 -24.8996 -24.8990 -24.8984 -24.8975 -24.8969
   -24.8966 -24.8962 -24.8961 -24.8958 -24.8952 -24.8948 -24.8942 -24.8934
   -24.8933 -24.8924 -24.8921 -24.8915 -24.8913 -24.8909 -24.8908 -24.8899
   -24.8894 -24.8891 -24.8882 -24.8880 -24.8875 -24.8871 -24.8862 -24.8859
   -24.8855 -24.8847 -24.8840 -24.8833 -24.8832 -24.8829 -24.8822 -24.8821
   -24.8819 -24.8813 -24.8806 -24.8798 -24.8793 -24.8787 -24.8782 -24.8777
   -24.8770 -24.8766 -24.8759 -24.8757 -24.8752 -24.8748 -24.8740 -24.8735
   -24.8733 -24.8733 -24.8725 -24.8721 -24.8718 -24.8714 -24.8704 -24.8699
   -24.8698 -24.8694 -24.8692 -24.8687 -24.8683 -24.8677 -24.8673 -24.8669
   -24.8667 -24.8659 -24.8654 -24.8648 -24.8646 -24.8645 -24.8642 -24.8638
   -24.8636 -24.8630 -24.8624 -24.8618 -24.8614 -24.8610 -24.8603 -24.8599
   -24.8594 -24.8588 -24.8587 -24.8581 -24.8575 -24.8571 -24.8570 -24.8561
   -24.8560 -24.8555 -24.8551 -24.8548 -24.8538 -24.8535 -24.8529 -24.8526
   -24.8520 -24.8519 -24.8512 -24.8506 -24.8505 -24.8501 -24.8495 -24.8489
   -24.8484 -24.8480 -24.8476 -24.8472 -24.8465 -24.8463 -24.8460 -24.8455
   -24.8453 -24.8448 -24.8445 -24.8440 -24.8440 -24.8431 -24.8427 -24.8423
   -24.8420 -24.8419 -24.8415 -24.8408 -24.8402 -24.8399 -24.8395 -24.8392
   -24.8390 -24.8384 -24.8381 -24.8373 -24.8370 -24.8366 -24.8364 -24.8358
   -24.8357 -24.8348 -24.8346 -24.8341 -24.8336 -24.8331 -24.8325 -24.8321
   -24.8318 -24.8312 -24.8309 -24.8301 -24.8294 -24.8290 -24.8285 -24.8283
   -24.8279 -24.8278 -24.8268 -24.8264 -24.8263 -24.8261 -24.8258 -24.8245
   -24.8240 -24.8238 -24.8230 -24.8229 -24.8227 -24.8223 -24.8220 -24.8211
   -24.8206 -24.8205 -24.8193 -24.8190 -24.8187 -24.8184 -24.8183 -24.8179
   -24.8177 -24.8168 -24.8165 -24.8162 -24.8161 -24.8159 -24.8158 -24.8155
   -24.8149 -24.8146 -24.8141 -24.8134 -24.8132 -24.8128 -24.8121 -24.8120
   -24.8116 -24.8114 -24.8108 -24.8105 -24.8103 -24.8100 -24.8096 -24.8090
   -24.8090 -24.8088 -24.8080 -24.8075 -24.8073 -24.8070 -24.8063 -24.8061
   -24.8059 -24.8050 -24.8048 -24.8046 -24.8042 -24.8039 -24.8038 -24.8029
   -24.8025 -24.8021 -24.8019 -24.8012 -24.8011 -24.8005 -24.8001 -24.7999
   -24.7997 -24.7996 -24.7986 -24.7985 -24.7977 -24.7974 -24.7969 -24.7963
   -24.7962 -24.7955 -24.7951 -24.7949 -24.7947 -24.7943 -24.7940 -24.7937
   -24.7935 -24.7930 -24.7926 -24.7924 -24.7922 -24.7918 -24.7916 -24.7911
   -24.7905 -24.7902 -24.7899 -24.7896 -24.7885 -24.7879 -24.7878 -24.7873
   -24.7870 -24.7866 -24.7865 -24.7857 -24.7854 -24.7853 -24.7849 -24.7847
   -24.7842 -24.7834 -24.7833 -24.7827 -24.7827 -24.7824 -24.7818 -24.7813
   -24.7806 -24.7799 -24.7796 -24.7789 -24.7784 -24.7781 -24.7778 -24.7775
   -24.7769 -24.7767 -24.7761 -24.7757 -24.7755 -24.7751 -24.7746 -24.7739
   -24.7736 -24.7733 -24.7729 -24.7725 -24.7722 -24.7715 -24.7709 -24.7705
   -24.7701 -24.7698 -24.7697 -24.7695 -24.7691 -24.7687 -24.7683 -24.7680
   -24.7675 -24.7671 -24.7669 -24.7665 -24.7662 -24.7659 -24.7654 -24.7653
   -24.7650 -24.7641 -24.7641 -24.7639 -24.7635 -24.7633 -24.7628 -24.7621
   -24.7616 -24.7614 -24.7604 -24.7603 -24.7601 -24.7596 -24.7594 -24.7588
   -24.7583 -24.7582 -24.7576 -24.7571 -24.7567 -24.7563 -24.7558 -24.7555
   -24.7551 -24.7547 -24.7542 -24.7538 -24.7535 -24.7534 -24.7531 -24.7527
   -24.7523 -24.7520 -24.7515 -24.7506 -24.7501 -24.7498 -24.7494 -24.7492
   -24.7484 -24.7483 -24.7476 -24.7472 -24.7471 -24.7468 -24.7460 -24.7451
   -24.7449 -24.7447 -24.7441 -24.7438 -24.7430 -24.7427 -24.7422 -24.7418
   -24.7410 -24.7404 -24.7401 -24.7401 -24.7394 -24.7390 -24.7388 -24.7382
   -24.7381 -24.7375 -24.7370 -24.7368 -24.7366 -24.7362 -24.7356 -24.7350
   -24.7348 -24.7345 -24.7342 -24.7335 -24.7332 -24.7331 -24.7328 -24.7320
   -24.7318 -24.7315 -24.7311 -24.7305 -24.7301 -24.7301 -24.7294 -24.7287
   -24.7278 -24.7275 -24.7271 -24.7267 -24.7265 -24.7257 -24.7255 -24.7247
   -24.7244 -24.7239 -24.7233 -24.7223 -24.7222 -24.7214 -24.7212 -24.7209
   -24.7207 -24.7205 -24.7199 -24.7194 -24.7191 -24.7189 -24.7182 -24.7167
   -24.7163 -24.7161 -24.7158 -24.7149 -24.7143 -24.7137 -24.7134 -24.7129
   -24.7124 -24.7115 -24.7113 -24.7111 -24.7105 -24.7098 -24.7095 -24.7087
   -24.7080 -24.7080 -24.7073 -24.7071 -24.7059 -24.7055 -24.7050 -24.7048
   -24.7043 -24.7042 -24.7034 -24.7026 -24.7021 -24.7016 -24.7008 -24.7003
   -24.7001 -24.6996 -24.6991 -24.6984 -24.6977 -24.6975 -24.6972 -24.6972
   -24.6965 -24.6961 -24.6958 -24.6949 -24.6946 -24.6939 -24.6936 -24.6929
   -24.6924 -24.6921 -24.6917 -24.6913 -24.6910 -24.6908 -24.6904 -24.6902
   -24.6898 -24.6896 -24.6895 -24.6889 -24.6888 -24.6881 -24.6878 -24.6875
   -24.6865 -24.6861 -24.6857 -24.6852 -24.6850 -24.6842 -24.6838 -24.6834
   -24.6829 -24.6824 -24.6821 -24.6815 -24.6810 -24.6802 -24.6799 -24.6792
   -24.6789 -24.6784 -24.6778 -24.6774 -24.6772 -24.6761 -24.6757 -24.6752
   -24.6749 -24.6747 -24.6736 -24.6731 -24.6722 -24.6721 -24.6715 -24.6711
   -24.6710 -24.6707 -24.6696 -24.6685 -24.6682 -24.6677 -24.6674 -24.6670
   -24.6661 -24.6658 -24.6652 -24.6647 -24.6644 -24.6634 -24.6632 -24.6626
   -24.6620 -24.6616 -24.6611 -24.6609 -24.6602 -24.6600 -24.6599 -24.6595
   -24.6594 -24.6591 -24.6589 -24.6584 -24.6577 -24.6569 -24.6566 -24.6563
   -24.6558 -24.6549 -24.6547 -24.6540 -24.6539 -24.6531 -24.6528 -24.6527
   -24.6523 -24.6519 -24.6510 -24.6504 -24.6501 -24.6494 -24.6482 -24.6480
   -24.6476 -24.6467 -24.6465 -24.6461 -24.6449 -24.6445 -24.6443 -24.6428
   -24.6424 -24.6417 -24.6408 -24.6401 -24.6396 -24.6393 -24.6391 -24.6381
   -24.6374 -24.6367 -24.6361 -24.6356 -24.6345 -24.6335 -24.6330 -24.6329
   -24.6320 -24.6312 -24.6311 -24.6303 -24.6301 -24.6293 -24.6292 -24.6289
   -24.6282 -24.6278 -24.6271 -24.6266 -24.6255 -24.6251 -24.6247 -24.6243
   -24.6231 -24.6224 -24.6219 -24.6209 -24.6199 -24.6192 -24.6189 -24.6183
   -24.6181 -24.6177 -24.6173 -24.6165 -24.6154 -24.6151 -24.6143 -24.6139
   -24.6136 -24.6120 -24.6115 -24.6112 -24.6095 -24.6091 -24.6079 -24.6076
   -24.6065 -24.6060 -24.6055 -24.6054 -24.6048 -24.6037 -24.6034 -24.6032
   -24.6021 -24.6019 -24.6006 -24.6001 -24.6000 -24.5986 -24.5981 -24.5967
   -24.5962 -24.5958 -24.5950 -24.5948 -24.5945 -24.5940 -24.5932 -24.5926
   -24.5922 -24.5917 -24.5907 -24.5905 -24.5892 -24.5889 -24.5887 -24.5872
   -24.5871 -24.5862 -24.5853 -24.5846 -24.5840 -24.5832 -24.5827 -24.5821
   -24.5813 -24.5799 -24.5790 -24.5770 -24.5758 -24.5753 -24.5742 -24.5733
   -24.5732 -24.5719 -24.5706 -24.5698 -24.5696 -24.5690 -24.5679 -24.5673
   -24.5671 -24.5656 -24.5645 -24.5643 -24.5634 -24.5623 -24.5617 -24.5614
   -24.5606 -24.5599 -24.5595 -24.5588 -24.5583 -24.5575 -24.5572 -24.5567
   -24.5552 -24.5541 -24.5537 -24.5532 -24.5518 -24.5515 -24.5510 -24.5496
   -24.5486 -24.5476 -24.5465 -24.5455 -24.5437 -24.5425 -24.5425 -24.5415
   -24.5411 -24.5402 -24.5394 -24.5373 -24.5371 -24.5368 -24.5336 -24.5324
   -24.5318 -24.5311 -24.5297 -24.5288 -24.5275 -24.5272 -24.5260 -24.5248
   -24.5245 -24.5240 -24.5226 -24.5222 -24.5199 -24.5191 -24.5180 -24.5172
   -24.5150 -24.5133 -24.5087 -24.5080 -24.5074 -24.5061 -24.5058 -24.5050
   -24.5050 -24.5039 -24.5029 -24.5015 -24.5011 -24.4974 -24.4970 -24.4961
   -24.4948 -24.4940 -24.4929 -24.4925 -24.4919 -24.4904 -24.4890 -24.4884
   -24.4881 -24.4873 -24.4868 -24.4859 -24.4840 -24.4834 -24.4833 -24.4823
   -24.4816 -24.4799 -24.4784 -24.4782 -24.4772 -24.4752 -24.4700 -24.4665
   -24.4658 -24.4654 -24.4640 -24.4633 -24.4590 -24.4564 -24.4535 -24.4530
   -24.4517 -24.4487 -24.4473 -24.4460 -24.4435 -24.4432 -24.4418 -24.4397
   -24.4374 -24.4352 -24.4339 -24.4319 -24.4307 -24.4296 -24.4280 -24.4279
   -24.4253 -24.4228 -24.4226 -24.4225 -24.4191 -24.4164 -24.4148 -24.4128
   -24.4120 -24.4036 -24.4006 -24.3942 -24.3926 -24.3827 -24.3812 -24.3799
   -24.3716 -24.3668 -24.3537 -24.3494 -24.3438 -24.3368 -24.3249 -24.3154
   -13.3831 -13.3453 -13.3196 -13.2123 -13.1503 -13.1053 -13.0789 -13.0450
   -13.0228 -12.9398 -12.9186 -12.8681 -12.8317 -12.7844 -12.7658 -12.7594
   -12.7184 -12.6824 -12.6553 -12.6273 -12.6052 -12.5810 -12.5196 -12.5032
   -12.4834 -12.4493 -12.4431 -12.3821 -12.3558 -12.3515 -12.2940 -12.2831
   -12.2533 -12.1933 -12.1665 -12.1477 -12.1393 -12.1264 -12.0658 -12.0425
   -12.0220 -11.9750 -11.9415 -11.9345 -11.9058 -11.8567 -11.8222 -11.7929
   -11.7653 -11.7361 -11.7297 -11.6851 -11.6512 -11.6113 -11.6014 -11.5678
   -11.5439 -11.5253 -11.4921 -11.4758 -11.4521 -11.4385 -11.3967 -11.3799
   -11.3410 -11.3399 -11.3059 -11.3000 -11.2283 -11.2104 -11.1927 -11.1366
   -11.0893 -11.0608 -10.9955 -10.9893 -10.9657 -10.9182 -10.9104 -10.8847
   -10.8526 -10.8373 -10.7880 -10.7479 -10.7342 -10.6966 -10.6459 -10.6078
   -10.5952 -10.5733 -10.5319 -10.5162 -10.5006 -10.4708 -10.4668 -10.4467
   -10.4061 -10.3724 -10.3574 -10.3461 -10.3147 -10.2554 -10.2171 -10.1812
   -10.1738 -10.1293 -10.0866 -10.0576 -10.0554 -10.0166 -10.0022  -9.9402
    -9.9114  -9.8967  -9.8570  -9.8334  -9.8039  -9.7684  -9.7468  -9.7274
    -9.7046  -9.6743  -9.6414  -9.6218  -9.6168  -9.5897  -9.5714  -9.5583
    -9.5343  -9.5309  -9.4538  -9.4445  -9.4346  -9.3879  -9.3695  -9.3650
    -9.3369  -9.3122  -9.2726  -9.2096  -9.1884  -9.1810  -9.1544  -9.1390
    -9.1049  -9.0479  -9.0231  -8.9866  -8.9543  -8.9522  -8.9369  -8.8799
    -8.8685  -8.8380  -8.8181  -8.7945  -8.7709  -8.7648  -8.7435  -8.7308
    -8.7090  -8.6716  -8.6604  -8.6232  -8.6145  -8.5804  -8.5668  -8.5461
    -8.4915  -8.4815  -8.4678  -8.4515  -8.4352  -8.3885  -8.3333  -8.2824
    -8.2655  -8.2581  -8.2315  -8.2072  -8.1916  -8.1355  -8.1141  -8.0828
    -8.0398  -8.0265  -7.9684  -7.9504  -7.9281  -7.8906  -7.8625  -7.8309
    -7.8119  -7.7822  -7.7541  -7.7346  -7.6147  -7.4739  -7.2108  -6.8493
    -6.5948  -6.5515  -6.4624  -6.4494  -6.4002  -6.3428  -6.3147  -6.2929
    -6.2668  -6.2443  -6.2128  -6.1888  -6.1734  -6.1525  -6.1335  -6.1222
    -6.1014  -6.0720  -6.0410  -6.0352  -6.0217  -5.9935  -5.9773  -5.9452
    -5.9299  -5.9152  -5.8932  -5.8701  -5.8446  -5.8298  -5.8148  -5.7938
    -5.7912  -5.7571  -5.7375  -5.7086  -5.7013  -5.6817  -5.6545  -5.6430
    -5.6365  -5.6181  -5.6094  -5.5885  -5.5611  -5.5516  -5.5383  -5.5163
    -5.5005  -5.4667  -5.4586  -5.4441  -5.4262  -5.4112  -5.4101  -5.3990
    -5.3824  -5.3476  -5.3405  -5.3254  -5.3010  -5.2970  -5.2773  -5.2630
    -5.2450  -5.2297  -5.2137  -5.2050  -5.2000  -5.1851  -5.1826  -5.1540
    -5.1455  -5.1224  -5.1176  -5.1103  -5.0884  -5.0807  -5.0749  -5.0575
    -5.0319  -5.0158  -5.0130  -4.9810  -4.9772  -4.9645  -4.9440  -4.9397
    -4.9253  -4.9175  -4.9130  -4.8971  -4.8817  -4.8745  -4.8554  -4.8429
    -4.8312  -4.8155  -4.8041  -4.8008  -4.7922  -4.7704  -4.7562  -4.7487
    -4.7363  -4.7080  -4.6984  -4.6814  -4.6636  -4.6545  -4.6512  -4.6341
    -4.6237  -4.6095  -4.5966  -4.5797  -4.5774  -4.5577  -4.5402  -4.5368
    -4.5225  -4.5104  -4.5034  -4.4891  -4.4745  -4.4538  -4.4464  -4.4381
    -4.4113  -4.3860  -4.3760  -4.3721  -4.3545  -4.3331  -4.3258  -4.3139
    -4.3032  -4.2924  -4.2569  -4.2451  -4.2394  -4.2341  -4.2287  -4.2201
    -4.1906  -4.1579  -4.1539  -4.1428  -4.1268  -4.1162  -4.0960  -4.0895
    -4.0836  -4.0588  -4.0428  -4.0344  -4.0045  -3.9993  -3.9930  -3.9624
    -3.9578  -3.9566  -3.9360  -3.9230  -3.9085  -3.8952  -3.8772  -3.8581
    -3.8286  -3.8174  -3.8068  -3.7895  -3.7808  -3.7629  -3.7482  -3.7431
    -3.7337  -3.7152  -3.7004  -3.6925  -3.6739  -3.6657  -3.6529  -3.6422
    -3.6182  -3.6120  -3.5839  -3.5722  -3.5595  -3.5503  -3.5459  -3.5241
    -3.5170  -3.4921  -3.4795  -3.4792  -3.4536  -3.4454  -3.4407  -3.4247
    -3.4207  -3.3953  -3.3870  -3.3497  -3.3342  -3.3259  -3.3230  -3.3016
    -3.2879  -3.2745  -3.2672  -3.2501  -3.2421  -3.2253  -3.1996  -3.1882
    -3.1754  -3.1587  -3.1524  -3.1449  -3.1264  -3.1183  -3.1069  -3.0947
    -3.0799  -3.0727  -3.0608  -3.0366  -3.0090  -2.9879  -2.9727  -2.9598
    -2.9546  -2.9448  -2.9352  -2.9272  -2.9034  -2.8980  -2.8925  -2.8769
    -2.8523  -2.8238  -2.8191  -2.8045  -2.7928  -2.7831  -2.7701  -2.7560
    -2.7469  -2.7407  -2.7290  -2.7145  -2.6961  -2.6864  -2.6719  -2.6497
    -2.6441  -2.6295  -2.6238  -2.6154  -2.6003  -2.5744  -2.5705  -2.5645
    -2.5498  -2.5285  -2.5173  -2.5032  -2.4934  -2.4710  -2.4697  -2.4638
    -2.4305  -2.4252  -2.4081  -2.4016  -2.3875  -2.3726  -2.3554  -2.3490
    -2.3273  -2.3107  -2.2877  -2.2761  -2.2635  -2.2531  -2.2464  -2.2266
    -2.2150  -2.2052  -2.1885  -2.1773  -2.1750  -2.1581  -2.1458  -2.1230
    -2.1155  -2.1029  -2.0797  -2.0716  -2.0684  -2.0623  -2.0442  -2.0314
    -2.0173  -2.0056  -1.9851  -1.9746  -1.9543  -1.9432  -1.9332  -1.9210
    -1.9074  -1.8981  -1.8933  -1.8786  -1.8643  -1.8460  -1.8368  -1.8308
    -1.8004  -1.7811  -1.7773  -1.7570  -1.7413  -1.7270  -1.7195  -1.6833
    -1.6780  -1.6666  -1.6572  -1.6565  -1.6514  -1.6370  -1.6050  -1.6024
    -1.5869  -1.5601  -1.5537  -1.5410  -1.5270  -1.5128  -1.5098  -1.4929
    -1.4779  -1.4595  -1.4416  -1.4278  -1.4107  -1.3966  -1.3901  -1.3785
    -1.3634  -1.3498  -1.3402  -1.3315  -1.3163  -1.3022  -1.2928  -1.2580
    -1.2471  -1.2353  -1.2308  -1.2008  -1.1958  -1.1855  -1.1662  -1.1536
    -1.1464  -1.1220  -1.1049  -1.0901  -1.0727  -1.0618  -1.0484  -1.0420
    -1.0075  -0.9910  -0.9855  -0.9689  -0.9505  -0.9386  -0.9275  -0.8926
    -0.8857  -0.8541  -0.8438  -0.8250  -0.8088  -0.7759  -0.7600  -0.7510
    -0.7305  -0.6946  -0.6943  -0.6840  -0.6574  -0.6391  -0.6233  -0.6072
    -0.5914  -0.5709  -0.5582  -0.5226  -0.5142  -0.4969  -0.4828  -0.4621
    -0.4432  -0.4167  -0.4049  -0.3864  -0.3766  -0.3615  -0.3461  -0.3351
    -0.3252  -0.3224  -0.3118  -0.2906  -0.2549  -0.2330  -0.2214  -0.2160
    -0.2008  -0.1848  -0.1768  -0.1661  -0.1579  -0.1536  -0.1327  -0.1219
    -0.0983  -0.0879  -0.0823  -0.0628  -0.0504  -0.0312  -0.0297  -0.0234
    -0.0162   0.0031   0.0064   0.0187   0.0370   0.0400   0.0471   0.0755
     0.0807   0.0887   0.0934   0.1107   0.1144   0.1383   0.1478   0.1563
     0.1598   0.1769   0.1933   0.2032   0.2185   0.2210   0.2383   0.2411
     0.2566   0.2637   0.2648   0.2799   0.2900   0.3024   0.3149   0.3253
     0.3267   0.3437   0.3504   0.3534   0.3664   0.3824   0.3949   0.4126

     occupation numbers 
     1.0000   1.0000   1.0000   1.0000   1.0000   1.0000   1.0000   1.0000
     1.0000   1.0000   1.0000   1.0000   1.0000   1.0000   1.0000   1.0000
     1.0000   1.0000   1.0000   1.0000   1.0000   1.0000   1.0000   1.0000
     1.0000   1.0000   1.0000   1.0000   1.0000   1.0000   1.0000   1.0000
     1.0000   1.0000   1.0000   1.0000   1.0000   1.0000   1.0000   1.0000
     1.0000   1.0000   1.0000   1.0000   1.0000   1.0000   1.0000   1.0000
     1.0000   1.0000   1.0000   1.0000   1.0000   1.0000   1.0000   1.0000
     1.0000   1.0000   1.0000   1.0000   1.0000   1.0000   1.0000   1.0000
     1.0000   1.0000   1.0000   1.0000   1.0000   1.0000   1.0000   1.0000
     1.0000   1.0000   1.0000   1.0000   1.0000   1.0000   1.0000   1.0000
     1.0000   1.0000   1.0000   1.0000   1.0000   1.0000   1.0000   1.0000
     1.0000   1.0000   1.0000   1.0000   1.0000   1.0000   1.0000   1.0000
     1.0000   1.0000   1.0000   1.0000   1.0000   1.0000   1.0000   1.0000
     1.0000   1.0000   1.0000   1.0000   1.0000   1.0000   1.0000   1.0000
     1.0000   1.0000   1.0000   1.0000   1.0000   1.0000   1.0000   1.0000
     1.0000   1.0000   1.0000   1.0000   1.0000   1.0000   1.0000   1.0000
     1.0000   1.0000   1.0000   1.0000   1.0000   1.0000   1.0000   1.0000
     1.0000   1.0000   1.0000   1.0000   1.0000   1.0000   1.0000   1.0000
     1.0000   1.0000   1.0000   1.0000   1.0000   1.0000   1.0000   1.0000
     1.0000   1.0000   1.0000   1.0000   1.0000   1.0000   1.0000   1.0000
     1.0000   1.0000   1.0000   1.0000   1.0000   1.0000   1.0000   1.0000
     1.0000   1.0000   1.0000   1.0000   1.0000   1.0000   1.0000   1.0000
     1.0000   1.0000   1.0000   1.0000   1.0000   1.0000   1.0000   1.0000
     1.0000   1.0000   1.0000   1.0000   1.0000   1.0000   1.0000   1.0000
     1.0000   1.0000   1.0000   1.0000   1.0000   1.0000   1.0000   1.0000
     1.0000   1.0000   1.0000   1.0000   1.0000   1.0000   1.0000   1.0000
     1.0000   1.0000   1.0000   1.0000   1.0000   1.0000   1.0000   1.0000
     1.0000   1.0000   1.0000   1.0000   1.0000   1.0000   1.0000   1.0000
     1.0000   1.0000   1.0000   1.0000   1.0000   1.0000   1.0000   1.0000
     1.0000   1.0000   1.0000   1.0000   1.0000   1.0000   1.0000   1.0000
     1.0000   1.0000   1.0000   1.0000   1.0000   1.0000   1.0000   1.0000
     1.0000   1.0000   1.0000   1.0000   1.0000   1.0000   1.0000   1.0000
     1.0000   1.0000   1.0000   1.0000   1.0000   1.0000   1.0000   1.0000
     1.0000   1.0000   1.0000   1.0000   1.0000   1.0000   1.0000   1.0000
     1.0000   1.0000   1.0000   1.0000   1.0000   1.0000   1.0000   1.0000
     1.0000   1.0000   1.0000   1.0000   1.0000   1.0000   1.0000   1.0000
     1.0000   1.0000   1.0000   1.0000   1.0000   1.0000   1.0000   1.0000
     1.0000   1.0000   1.0000   1.0000   1.0000   1.0000   1.0000   1.0000
     1.0000   1.0000   1.0000   1.0000   1.0000   1.0000   1.0000   1.0000
     1.0000   1.0000   1.0000   1.0000   1.0000   1.0000   1.0000   1.0000
     1.0000   1.0000   1.0000   1.0000   1.0000   1.0000   1.0000   1.0000
     1.0000   1.0000   1.0000   1.0000   1.0000   1.0000   1.0000   1.0000
     1.0000   1.0000   1.0000   1.0000   1.0000   1.0000   1.0000   1.0000
     1.0000   1.0000   1.0000   1.0000   1.0000   1.0000   1.0000   1.0000
     1.0000   1.0000   1.0000   1.0000   1.0000   1.0000   1.0000   1.0000
     1.0000   1.0000   1.0000   1.0000   1.0000   1.0000   1.0000   1.0000
     1.0000   1.0000   1.0000   1.0000   1.0000   1.0000   1.0000   1.0000
     1.0000   1.0000   1.0000   1.0000   1.0000   1.0000   1.0000   1.0000
     1.0000   1.0000   1.0000   1.0000   1.0000   1.0000   1.0000   1.0000
     1.0000   1.0000   1.0000   1.0000   1.0000   1.0000   1.0000   1.0000
     1.0000   1.0000   1.0000   1.0000   1.0000   1.0000   1.0000   1.0000
     1.0000   1.0000   1.0000   1.0000   1.0000   1.0000   1.0000   1.0000
     1.0000   1.0000   1.0000   1.0000   1.0000   1.0000   1.0000   1.0000
     1.0000   1.0000   1.0000   1.0000   1.0000   1.0000   1.0000   1.0000
     1.0000   1.0000   1.0000   1.0000   1.0000   1.0000   1.0000   1.0000
     1.0000   1.0000   1.0000   1.0000   1.0000   1.0000   1.0000   1.0000
     1.0000   1.0000   1.0000   1.0000   1.0000   1.0000   1.0000   1.0000
     1.0000   1.0000   1.0000   1.0000   1.0000   1.0000   1.0000   1.0000
     1.0000   1.0000   1.0000   1.0000   1.0000   1.0000   1.0000   1.0000
     1.0000   1.0000   1.0000   1.0000   1.0000   1.0000   1.0000   1.0000
     1.0000   1.0000   1.0000   1.0000   1.0000   1.0000   1.0000   1.0000
     1.0000   1.0000   1.0000   1.0000   1.0000   1.0000   1.0000   1.0000
     1.0000   1.0000   1.0000   1.0000   1.0000   1.0000   1.0000   1.0000
     1.0000   1.0000   1.0000   1.0000   1.0000   1.0000   1.0000   1.0000
     1.0000   1.0000   1.0000   1.0000   1.0000   1.0000   1.0000   1.0000
     1.0000   1.0000   1.0000   1.0000   1.0000   1.0000   1.0000   1.0000
     1.0000   1.0000   1.0000   1.0000   1.0000   1.0000   1.0000   1.0000
     1.0000   1.0000   1.0000   1.0000   1.0000   1.0000   1.0000   1.0000
     1.0000   1.0000   1.0000   1.0000   1.0000   1.0000   1.0000   1.0000
     1.0000   1.0000   1.0000   1.0000   1.0000   1.0000   1.0000   1.0000
     1.0000   1.0000   1.0000   1.0000   1.0000   1.0000   1.0000   1.0000
     1.0000   1.0000   1.0000   1.0000   1.0000   1.0000   1.0000   1.0000
     1.0000   1.0000   1.0000   1.0000   1.0000   1.0000   1.0000   1.0000
     1.0000   1.0000   1.0000   1.0000   1.0000   1.0000   1.0000   1.0000
     1.0000   1.0000   1.0000   1.0000   1.0000   1.0000   1.0000   1.0000
     1.0000   1.0000   1.0000   1.0000   1.0000   1.0000   1.0000   1.0000
     1.0000   1.0000   1.0000   1.0000   1.0000   1.0000   1.0000   1.0000
     1.0000   1.0000   1.0000   1.0000   1.0000   1.0000   1.0000   1.0000
     1.0000   1.0000   1.0000   1.0000   1.0000   1.0000   1.0000   1.0000
     1.0000   1.0000   1.0000   1.0000   1.0000   1.0000   1.0000   1.0000
     1.0000   1.0000   1.0000   1.0000   1.0000   1.0000   1.0000   1.0000
     1.0000   1.0000   1.0000   1.0000   1.0000   1.0000   1.0000   1.0000
     1.0000   1.0000   1.0000   1.0000   1.0000   1.0000   1.0000   1.0000
     1.0000   1.0000   1.0000   1.0000   1.0000   1.0000   1.0000   1.0000
     1.0000   1.0000   1.0000   1.0000   1.0000   1.0000   1.0000   1.0000
     1.0000   1.0000   1.0000   1.0000   1.0000   1.0000   1.0000   1.0000
     1.0000   1.0000   1.0000   1.0000   1.0000   1.0000   1.0000   1.0000
     1.0000   1.0000   1.0000   1.0000   1.0000   1.0000   1.0000   1.0000
     1.0000   1.0000   1.0000   1.0000   1.0000   1.0000   1.0000   1.0000
     1.0000   1.0000   1.0000   1.0000   1.0000   1.0000   1.0000   1.0000
     1.0000   1.0000   1.0000   1.0000   1.0000   1.0000   1.0000   1.0000
     1.0000   1.0000   1.0000   1.0000   1.0000   1.0000   1.0000   1.0000
     1.0000   1.0000   1.0000   1.0000   1.0000   1.0000   1.0000   1.0000
     1.0000   1.0000   1.0000   1.0000   1.0000   1.0000   1.0000   1.0000
     1.0000   1.0000   1.0000   1.0000   1.0000   1.0000   1.0000   1.0000
     1.0000   1.0000   1.0000   1.0000   1.0000   1.0000   1.0000   1.0000
     1.0000   1.0000   1.0000   1.0000   1.0000   1.0000   1.0000   1.0000
     1.0000   1.0000   1.0000   1.0000   1.0000   1.0000   1.0000   1.0000
     1.0000   1.0000   1.0000   1.0000   1.0000   1.0000   1.0000   1.0000
     1.0000   1.0000   1.0000   1.0000   1.0000   1.0000   1.0000   1.0000
     1.0000   1.0000   1.0000   1.0000   1.0000   1.0000   1.0000   1.0000
     1.0000   1.0000   1.0000   1.0000   1.0000   1.0000   1.0000   1.0000
     1.0000   1.0000   1.0000   1.0000   1.0000   1.0000   1.0000   1.0000
     1.0000   1.0000   1.0000   1.0000   1.0000   1.0000   1.0000   1.0000
     1.0000   1.0000   1.0000   1.0000   1.0000   1.0000   1.0000   1.0000
     1.0000   1.0000   1.0000   1.0000   1.0000   1.0000   1.0000   1.0000
     1.0000   1.0000   1.0000   1.0000   1.0000   1.0000   1.0000   1.0000
     1.0000   1.0000   1.0000   1.0000   1.0000   1.0000   1.0000   1.0000
     1.0000   1.0000   1.0000   1.0000   1.0000   1.0000   1.0000   1.0000
     1.0000   1.0000   1.0000   1.0000   1.0000   1.0000   1.0000   1.0000
     1.0000   1.0000   1.0000   1.0000   1.0000   1.0000   1.0000   1.0000
     1.0000   1.0000   1.0000   1.0000   1.0000   1.0000   1.0000   1.0000
     1.0000   1.0000   1.0000   1.0000   1.0000   1.0000   1.0000   1.0000
     1.0000   1.0000   1.0000   1.0000   1.0000   1.0000   1.0000   1.0000
     1.0000   1.0000   1.0000   1.0000   1.0000   1.0000   1.0000   1.0000
     1.0000   1.0000   1.0000   1.0000   1.0000   1.0000   1.0000   1.0000
     1.0000   1.0000   1.0000   1.0000   1.0000   1.0000   1.0000   1.0000
     1.0000   1.0000   1.0000   1.0000   1.0000   1.0000   1.0000   1.0000
     1.0000   1.0000   1.0000   1.0000   1.0000   1.0000   1.0000   1.0000
     1.0000   1.0000   1.0000   1.0000   1.0000   1.0000   1.0000   1.0000
     1.0000   1.0000   1.0000   1.0000   1.0000   1.0000   1.0000   1.0000
     1.0000   1.0000   1.0000   1.0000   1.0000   1.0000   1.0000   1.0000
     1.0000   1.0000   1.0000   1.0000   1.0000   1.0000   1.0000   1.0000
     1.0000   1.0000   1.0000   1.0000   1.0000   1.0000   1.0000   1.0000
     1.0000   1.0000   1.0000   1.0000   1.0000   1.0000   1.0000   1.0000
     1.0000   1.0000   1.0000   1.0000   1.0000   1.0000   1.0000   1.0000
     1.0000   1.0000   1.0000   1.0000   1.0000   1.0000   1.0000   1.0000
     1.0000   1.0000   1.0000   1.0000   1.0000   1.0000   1.0000   1.0000
     1.0000   1.0000   1.0000   1.0000   1.0000   1.0000   1.0000   1.0000
     1.0000   1.0000   1.0000   1.0000   1.0000   1.0000   1.0000   1.0000
     1.0000   1.0000   1.0000   1.0000   1.0000   1.0000   1.0000   1.0000
     1.0000   1.0000   1.0000   1.0000   1.0000   1.0000   1.0000   1.0000
     1.0000   1.0000   1.0000   1.0000   1.0000   1.0000   1.0000   1.0000
     1.0000   1.0000   1.0000   1.0000   1.0000   1.0000   1.0000   1.0000
     1.0000   1.0000   1.0000   1.0000   1.0000   1.0000   1.0000   1.0000
     1.0000   1.0000   1.0000   1.0000   1.0000   1.0000   1.0000   1.0000
     1.0000   1.0000   1.0000   1.0000   1.0000   1.0000   1.0000   1.0000
     1.0000   1.0000   1.0000   1.0000   1.0000   1.0000   1.0000   1.0000
     1.0000   1.0000   1.0000   1.0000   1.0000   1.0000   1.0000   1.0000
     1.0000   1.0000   1.0000   1.0000   1.0000   1.0000   1.0000   1.0000
     1.0000   1.0000   1.0000   1.0000   1.0000   1.0000   1.0000   1.0000
     1.0000   1.0000   1.0000   1.0000   1.0000   1.0000   1.0000   1.0000
     1.0000   1.0000   1.0000   1.0000   1.0000   1.0000   1.0000   1.0000
     1.0000   1.0000   1.0000   1.0000   1.0000   1.0000   1.0000   1.0000
     1.0000   1.0000   1.0000   1.0000   1.0000   1.0000   1.0000   1.0000
     1.0000   1.0000   1.0000   1.0000   1.0000   1.0000   1.0000   1.0000
     1.0000   1.0000   1.0000   1.0000   1.0000   1.0000   1.0000   1.0000
     1.0000   1.0000   1.0000   1.0000   1.0000   1.0000   1.0000   1.0000
     1.0000   1.0000   1.0000   1.0000   1.0000   1.0000   1.0000   1.0000
     1.0000   1.0000   1.0000   1.0000   1.0000   1.0000   1.0000   1.0000
     1.0000   1.0000   1.0000   1.0000   1.0000   1.0000   1.0000   1.0000
     1.0000   1.0000   1.0000   1.0000   1.0000   1.0000   1.0000   1.0000
     1.0000   1.0000   1.0000   1.0000   1.0000   1.0000   1.0000   1.0000
     1.0000   1.0000   1.0000   1.0000   1.0000   1.0000   1.0000   1.0000
     1.0000   1.0000   1.0000   1.0000   1.0000   1.0000   1.0000   1.0000
     1.0000   1.0000   1.0000   1.0000   1.0000   1.0000   1.0000   1.0000
     1.0000   1.0000   1.0000   1.0000   1.0000   1.0000   1.0000   1.0000
     1.0000   1.0000   1.0000   1.0000   1.0000   1.0000   1.0000   1.0000
     1.0000   1.0000   1.0000   1.0000   1.0000   1.0000   1.0000   1.0000
     1.0000   1.0000   1.0000   1.0000   1.0000   1.0000   1.0000   1.0000
     1.0000   1.0000   1.0000   1.0000   1.0000   1.0000   1.0000   1.0000
     1.0000   1.0000   1.0000   1.0000   1.0000   1.0000   1.0000   1.0000
     1.0000   1.0000   1.0000   1.0000   1.0000   1.0000   1.0000   1.0000
     1.0000   1.0000   1.0000   1.0000   1.0000   1.0000   1.0000   1.0000
     1.0000   1.0000   1.0000   1.0000   1.0000   1.0000   1.0000   1.0000
     1.0000   1.0000   1.0000   1.0000   1.0000   1.0000   1.0000   1.0000
     1.0000   1.0001   1.0001   1.0001   1.0001   1.0002   1.0002   1.0003
     1.0004   1.0005   1.0009   1.0011   1.0012   1.0013   1.0014   1.0016
     1.0026   1.0041   1.0044   1.0051   1.0064   1.0074   1.0095   1.0103
     1.0111   1.0149   1.0177   1.0194   1.0263   1.0276   1.0292   1.0382
     1.0396   1.0400   1.0468   1.0512   1.0562   1.0608   1.0668   1.0726
     1.0797   1.0816   1.0828   1.0833   1.0828   1.0800   1.0756   1.0736
     1.0693   1.0581   1.0464   1.0391   1.0189   1.0087   0.9911   0.9747
     0.9329   0.9212   0.8620   0.8350   0.8046   0.7814   0.7704   0.7131
     0.6940   0.6257   0.5908   0.5900   0.5195   0.4970   0.4843   0.4421
     0.4317   0.3679   0.3481   0.2659   0.2355   0.2200   0.2148   0.1788
     0.1581   0.1395   0.1300   0.1098   0.1012   0.0848   0.0638   0.0559
     0.0481   0.0392   0.0362   0.0329   0.0259   0.0232   0.0199   0.0168
     0.0136   0.0122   0.0103   0.0071   0.0046   0.0032   0.0025   0.0020
     0.0018   0.0015   0.0013   0.0011   0.0007   0.0006   0.0006   0.0004
     0.0003   0.0001   0.0001   0.0001   0.0001   0.0001   0.0000   0.0000
     0.0000   0.0000   0.0000   0.0000   0.0000   0.0000   0.0000   0.0000
     0.0000   0.0000   0.0000   0.0000   0.0000   0.0000   0.0000   0.0000
     0.0000   0.0000   0.0000   0.0000   0.0000   0.0000   0.0000   0.0000
[...]
     atom   18 type  1   force =     0.00000294    0.00001191    0.00001293
     atom   19 type  1   force =     0.00000444    0.00000917    0.00000985
     atom   20 type  1   force =     0.00000202    0.00000719    0.00001269
     atom   21 type  1   force =     0.00000099    0.00000585    0.00001396
     atom   22 type  1   force =     0.00000460    0.00000670    0.00001583
     atom   23 type  1   force =     0.00000202    0.00001158    0.00000917
     atom   24 type  1   force =     0.00000247    0.00000615    0.00000594
     atom   25 type  1   force =    -0.00000226    0.00001551    0.00000557
     atom   26 type  1   force =    -0.00000245    0.00001069    0.00000454
     atom   27 type  1   force =    -0.00000416    0.00001039   -0.00000928
     atom   28 type  1   force =    -0.00001289    0.00000073    0.00000306
     atom   29 type  1   force =    -0.00000993    0.00000058   -0.00000621
     atom   30 type  1   force =    -0.00000773   -0.00000000   -0.00001263
     atom   31 type  1   force =    -0.00000301   -0.00000701   -0.00000181
     atom   32 type  1   force =    -0.00000059   -0.00000917   -0.00000639
     atom   33 type  1   force =     0.00001640   -0.00001051   -0.00000527
     atom   34 type  1   force =     0.00001385    0.00000125   -0.00000146
     atom   35 type  1   force =     0.00000575    0.00000279    0.00000973
     atom   36 type  1   force =     0.00001756    0.00000082   -0.00000356
     atom   37 type  1   force =     0.00000663    0.00000218    0.00001107
     atom   38 type  1   force =     0.00000437    0.00000577    0.00000462
     atom   39 type  1   force =     0.00000298    0.00000538    0.00000881
     atom   40 type  1   force =     0.00000137    0.00000394    0.00000807
     atom   41 type  1   force =     0.00000669    0.00000312    0.00001227
     atom   42 type  1   force =     0.00000410   -0.00000046    0.00000810
     atom   43 type  1   force =    -0.00000422   -0.00000213    0.00001117
     atom   44 type  1   force =     0.00000523   -0.00000467    0.00001505
     atom   45 type  1   force =    -0.00000207   -0.00000517    0.00000555
     atom   46 type  1   force =    -0.00000032    0.00000412   -0.00000463
     atom   47 type  1   force =    -0.00000586    0.00000876    0.00000439
     atom   48 type  1   force =    -0.00000584    0.00000419    0.00000457
     atom   49 type  1   force =    -0.00001352   -0.00000294   -0.00000512
     atom   50 type  1   force =    -0.00000744   -0.00000853   -0.00000943
     atom   51 type  1   force =    -0.00001302    0.00000026   -0.00000461
     atom   52 type  1   force =    -0.00001903    0.00000161   -0.00001291
     atom   53 type  1   force =     0.00002036   -0.00000573    0.00001627
     atom   54 type  1   force =     0.00002184   -0.00001826   -0.00001557
     atom   55 type  1   force =     0.00001697   -0.00000976    0.00000797
     atom   56 type  1   force =     0.00001651   -0.00000606    0.00000429
     atom   57 type  1   force =     0.00000835   -0.00000731    0.00001897
     atom   58 type  1   force =     0.00000201   -0.00000490    0.00001173
     atom   59 type  1   force =     0.00000200    0.00000055    0.00000788
     atom   60 type  1   force =     0.00000013   -0.00000248    0.00001641
     atom   61 type  1   force =     0.00000450   -0.00000770    0.00001675
     atom   62 type  1   force =     0.00000207   -0.00000277    0.00001258
     atom   63 type  1   force =     0.00000612   -0.00001082    0.00001051
     atom   64 type  1   force =    -0.00000070   -0.00000491    0.00001668
     atom   65 type  1   force =    -0.00001484   -0.00000375    0.00001472
     atom   66 type  1   force =    -0.00000820   -0.00001530    0.00001477
     atom   67 type  1   force =    -0.00001457   -0.00000116   -0.00000515
     atom   68 type  1   force =     0.00000440   -0.00000569    0.00000400
     atom   69 type  1   force =     0.00000214    0.00000265   -0.00000214
     atom   70 type  1   force =    -0.00001546    0.00000154   -0.00000252
     atom   71 type  1   force =    -0.00000945    0.00001684    0.00000942
     atom   72 type  1   force =     0.00000495   -0.00000856   -0.00000201
     atom   73 type  1   force =    -0.00000118   -0.00000092    0.00000793
     atom   74 type  1   force =     0.00000925    0.00001565   -0.00000065
     atom   75 type  1   force =     0.00001895    0.00000002    0.00000890
     atom   76 type  1   force =     0.00001269   -0.00000628    0.00001585
     atom   77 type  1   force =     0.00000419   -0.00000780    0.00002397
     atom   78 type  1   force =     0.00000698   -0.00000963    0.00002123
     atom   79 type  1   force =     0.00000430   -0.00001201    0.00001815
     atom   80 type  1   force =     0.00000432   -0.00000789    0.00002243
     atom   81 type  1   force =     0.00000445   -0.00001105    0.00002392
     atom   82 type  1   force =     0.00000171   -0.00001016    0.00002314
     atom   83 type  1   force =    -0.00000563   -0.00000592    0.00000028
     atom   84 type  1   force =    -0.00000100   -0.00000814    0.00002199
     atom   85 type  1   force =    -0.00000142   -0.00000523    0.00001580
     atom   86 type  1   force =    -0.00001691   -0.00000082   -0.00001409
     atom   87 type  1   force =    -0.00000519   -0.00000795    0.00000104
     atom   88 type  1   force =    -0.00000901   -0.00000053    0.00001015
     atom   89 type  1   force =    -0.00000146   -0.00000404    0.00001640
     atom   90 type  1   force =     0.00000036    0.00000332    0.00000992
     atom   91 type  1   force =    -0.00000175   -0.00000457    0.00001136
     atom   92 type  1   force =     0.00000025   -0.00000492   -0.00000051
     atom   93 type  1   force =     0.00000378   -0.00000048    0.00001121
     atom   94 type  1   force =     0.00000139   -0.00000868    0.00000407
     atom   95 type  1   force =     0.00000657   -0.00000581    0.00000951
     atom   96 type  1   force =     0.00000601   -0.00001007    0.00001591
     atom   97 type  1   force =     0.00000932   -0.00001144    0.00001880
     atom   98 type  1   force =     0.00000235   -0.00000850    0.00002377
     atom   99 type  1   force =     0.00000295   -0.00001080    0.00002511
     atom  100 type  1   force =     0.00000225   -0.00000835    0.00002246
     atom  101 type  1   force =    -0.00000130   -0.00000388    0.00002670
     atom  102 type  1   force =     0.00000312   -0.00001132    0.00002745
     atom  103 type  1   force =     0.00000321   -0.00001040    0.00001917
     atom  104 type  1   force =     0.00000288   -0.00001422    0.00001874
     atom  105 type  1   force =     0.00000144   -0.00000949    0.00001213
     atom  106 type  1   force =    -0.00001145   -0.00000964    0.00000911
     atom  107 type  1   force =    -0.00000209   -0.00000392    0.00001305
     atom  108 type  1   force =    -0.00000374   -0.00000740    0.00000803
     atom  109 type  1   force =     0.00000004   -0.00000006    0.00001674
     atom  110 type  1   force =    -0.00000384   -0.00000666    0.00001121
     atom  111 type  1   force =     0.00000129   -0.00000583    0.00000074
     atom  112 type  1   force =    -0.00000157    0.00000111   -0.00000610
     atom  113 type  1   force =    -0.00000240    0.00000056    0.00001248
     atom  114 type  1   force =     0.00000424   -0.00000163    0.00001835
     atom  115 type  1   force =     0.00000342   -0.00000527    0.00001720
     atom  116 type  1   force =     0.00000308   -0.00000014    0.00001713
     atom  117 type  1   force =     0.00000383   -0.00000384    0.00002625
     atom  118 type  1   force =     0.00000604   -0.00000199    0.00001966
     atom  119 type  1   force =     0.00000256   -0.00000561    0.00002805
     atom  120 type  1   force =     0.00000326   -0.00000607    0.00002761
     atom  121 type  1   force =    -0.00000079   -0.00000394    0.00002895
     atom  122 type  1   force =    -0.00000629   -0.00000902    0.00001936
     atom  123 type  1   force =    -0.00000175   -0.00001126    0.00001429
     atom  124 type  1   force =    -0.00000828   -0.00000487    0.00001597
     atom  125 type  1   force =     0.00000347   -0.00000833    0.00001079
     atom  126 type  1   force =     0.00000005   -0.00001254    0.00000774
     atom  127 type  1   force =    -0.00000338   -0.00000023   -0.00000076
     atom  128 type  1   force =     0.00000379    0.00000472    0.00000086
     atom  129 type  1   force =    -0.00000434    0.00000771   -0.00000154
     atom  130 type  1   force =    -0.00000209    0.00000210    0.00001524
     atom  131 type  1   force =     0.00000186   -0.00000352   -0.00000190
     atom  132 type  1   force =    -0.00000112   -0.00000126   -0.00000711
     atom  133 type  1   force =     0.00000244    0.00000093    0.00001056
     atom  134 type  1   force =     0.00000181    0.00000166    0.00001079
     atom  135 type  1   force =     0.00000209   -0.00000069    0.00002484
     atom  136 type  1   force =     0.00000165    0.00000062    0.00001537
     atom  137 type  1   force =     0.00000435   -0.00000636    0.00002080
     atom  138 type  1   force =     0.00000499   -0.00000728    0.00001837
     atom  139 type  1   force =     0.00000578   -0.00000843    0.00001899
     atom  140 type  1   force =    -0.00000139   -0.00001113    0.00001586
     atom  141 type  1   force =    -0.00000716   -0.00000235    0.00002182
     atom  142 type  1   force =    -0.00000647   -0.00000603    0.00003132
     atom  143 type  1   force =    -0.00000684   -0.00001156    0.00000233
     atom  144 type  1   force =    -0.00000042   -0.00000299    0.00002291
     atom  145 type  1   force =     0.00001284    0.00001222    0.00000699
     atom  146 type  1   force =     0.00000275   -0.00000585    0.00001016
     atom  147 type  1   force =     0.00001035    0.00000910    0.00000488
     atom  148 type  1   force =    -0.00000403    0.00000631    0.00000541
     atom  149 type  1   force =     0.00000409    0.00000782    0.00000849
     atom  150 type  1   force =     0.00000314    0.00000622    0.00001287
     atom  151 type  1   force =    -0.00000094    0.00000288    0.00000292
     atom  152 type  1   force =    -0.00000415   -0.00000094    0.00001104
     atom  153 type  1   force =    -0.00000269    0.00000361    0.00000382
     atom  154 type  1   force =    -0.00000122    0.00000112    0.00002059
     atom  155 type  1   force =    -0.00000102    0.00000074    0.00000697
     atom  156 type  1   force =     0.00000100    0.00000309    0.00001310
     atom  157 type  1   force =     0.00000148    0.00000455    0.00001142
     atom  158 type  1   force =     0.00000123   -0.00000115    0.00002002
     atom  159 type  1   force =    -0.00000528    0.00000025    0.00002252
     atom  160 type  1   force =     0.00000045    0.00000197    0.00002140
     atom  161 type  1   force =    -0.00001278    0.00000903    0.00001590
     atom  162 type  1   force =    -0.00000829   -0.00000728    0.00001212
     atom  163 type  1   force =    -0.00000086    0.00001273    0.00001422
     atom  164 type  1   force =     0.00001366    0.00001578    0.00001181
     atom  165 type  1   force =     0.00001049    0.00001118    0.00000931
     atom  166 type  1   force =     0.00000813    0.00000902   -0.00001191
     atom  167 type  1   force =     0.00000985    0.00000735    0.00000135
     atom  168 type  1   force =    -0.00000190    0.00000309   -0.00001169
     atom  169 type  1   force =     0.00000142    0.00000600    0.00000851
     atom  170 type  1   force =    -0.00000222    0.00000108    0.00000304
     atom  171 type  1   force =    -0.00000150    0.00000199   -0.00000591
     atom  172 type  1   force =    -0.00000183    0.00000518   -0.00000416
     atom  173 type  1   force =    -0.00000089    0.00000829    0.00001140
     atom  174 type  1   force =    -0.00000086    0.00000496    0.00000950
     atom  175 type  1   force =     0.00000253    0.00000476    0.00001521
     atom  176 type  1   force =     0.00000055    0.00000847    0.00000773
     atom  177 type  1   force =    -0.00000159    0.00000921    0.00002012
     atom  178 type  1   force =     0.00000187    0.00000495    0.00001064
     atom  179 type  1   force =    -0.00000460    0.00000290    0.00002666
     atom  180 type  1   force =    -0.00000691    0.00000631    0.00001864
     atom  181 type  1   force =    -0.00000225    0.00001065    0.00000829
     atom  182 type  1   force =    -0.00000934    0.00001944    0.00001116
     atom  183 type  1   force =    -0.00000623    0.00001754    0.00001272
     atom  184 type  1   force =     0.00000188    0.00001532    0.00000637
     atom  185 type  1   force =     0.00000466    0.00001197    0.00000895
     atom  186 type  1   force =     0.00000202    0.00001051    0.00000802
     atom  187 type  1   force =    -0.00000536    0.00000994    0.00000638
     atom  188 type  1   force =    -0.00000684    0.00000812   -0.00001135
     atom  189 type  1   force =    -0.00000280    0.00000367    0.00000316
     atom  190 type  1   force =    -0.00000311    0.00000310   -0.00001049
     atom  191 type  1   force =    -0.00000364    0.00000593    0.00000742
     atom  192 type  1   force =     0.00000450    0.00000337   -0.00000812
     atom  193 type  1   force =     0.00000329    0.00000401   -0.00000311
     atom  194 type  1   force =     0.00000062    0.00000769   -0.00000330
     atom  195 type  1   force =    -0.00000048    0.00000947    0.00001267
     atom  196 type  1   force =     0.00000177    0.00000887    0.00000278
     atom  197 type  1   force =     0.00000434    0.00001131    0.00001261
     atom  198 type  1   force =     0.00000229    0.00000107    0.00001558
     atom  199 type  1   force =     0.00000009    0.00000750    0.00001169
     atom  200 type  1   force =     0.00000118    0.00001446    0.00001293

     Total force =     0.289829     Total SCF correction =     0.000237


     Computing stress (Cartesian axis) and pressure


     negative rho (up, down):  4.019E-02 0.000E+00
          total   stress  (Ry/bohr**3)                   (kbar)     P=   -2.51
  -0.00001954   0.00000027   0.00000036         -2.87      0.04      0.05
   0.00000027  -0.00002215  -0.00000049          0.04     -3.26     -0.07
   0.00000036  -0.00000049  -0.00000944          0.05     -0.07     -1.39

     kinetic stress (kbar)    481.69     -0.06     -0.01
                               -0.06    481.86     -0.09
                               -0.01     -0.09    488.23

     local   stress (kbar) -51963.44     88.27    243.19
                               88.27 -51869.56   -253.91
                              243.19   -253.91  51056.78

     nonloc. stress (kbar)    598.10      0.02     -0.01
                                0.02    597.84      0.13
                               -0.01      0.13    591.77

     hartree stress (kbar)  26396.88    -44.63   -119.91
                              -44.63  26358.64    120.63
                             -119.91    120.63 -24489.36

     exc-cor stress (kbar)    768.56      0.00     -0.00
                                0.00    768.54      0.01
                               -0.00      0.01    767.86

     corecor stress (kbar)  -1148.40     -0.00     -0.00
                               -0.00  -1148.39     -0.00
                               -0.00     -0.00  -1148.14

     ewald   stress (kbar)  24863.74    -43.57   -123.21
                              -43.57  24807.81    133.17
                             -123.21    133.17 -27268.52

     hubbard stress (kbar)      0.00      0.00      0.00
                                0.00      0.00      0.00
                                0.00      0.00      0.00

     london  stress (kbar)      0.00      0.00      0.00
                                0.00      0.00      0.00
                                0.00      0.00      0.00

     DFT-D3  stress (kbar)      0.00      0.00      0.00
                                0.00      0.00      0.00
                                0.00      0.00      0.00

     XDM     stress (kbar)      0.00      0.00      0.00
                                0.00      0.00      0.00
                                0.00      0.00      0.00

     dft-nl  stress (kbar)      0.00      0.00      0.00
                                0.00      0.00      0.00
                                0.00      0.00      0.00

     TS-vdW  stress (kbar)      0.00      0.00      0.00
                                0.00      0.00      0.00
                                0.00      0.00      0.00



     Writing output data file scf.save/
 
     init_run     :    105.82s CPU    112.30s WALL (       1 calls)
     electrons    :  12526.64s CPU  12749.15s WALL (       1 calls)
     forces       :     15.33s CPU     16.01s WALL (       1 calls)
     stress       :    276.64s CPU    278.32s WALL (       1 calls)

     Called by init_run:
     wfcinit      :     65.71s CPU     67.23s WALL (       1 calls)
     wfcinit:atom :      0.06s CPU      0.10s WALL (       1 calls)
     wfcinit:wfcr :     65.54s CPU     66.94s WALL (       1 calls)
     potinit      :      1.41s CPU      1.46s WALL (       1 calls)
     hinit0       :      8.14s CPU     11.79s WALL (       1 calls)

     Called by electrons:
     c_bands      :   8203.35s CPU   8343.53s WALL (      31 calls)
     sum_band     :    905.68s CPU    925.49s WALL (      31 calls)
     v_of_rho     :     25.58s CPU     26.07s WALL (      32 calls)
     v_h          :      3.53s CPU      3.58s WALL (      32 calls)
     v_xc         :     23.36s CPU     23.83s WALL (      34 calls)
     newd         :     29.19s CPU     34.37s WALL (      32 calls)
     mix_rho      :   3358.26s CPU   3413.60s WALL (      31 calls)

     Called by c_bands:
     init_us_2    :      5.92s CPU      6.01s WALL (      63 calls)
     regterg      :   8167.94s CPU   8307.50s WALL (      43 calls)

     Called by sum_band:
     sum_band:bec :      0.75s CPU      0.76s WALL (      31 calls)
     addusdens    :     26.71s CPU     31.68s WALL (      31 calls)

     Called by *egterg:
     h_psi        :   5640.52s CPU   5729.92s WALL (     612 calls)
     s_psi        :    260.54s CPU    262.65s WALL (     612 calls)
     g_psi        :      2.07s CPU      2.08s WALL (     568 calls)
     rdiaghg      :   1197.85s CPU   1215.04s WALL (     611 calls)
     regterg:over :    387.18s CPU    395.08s WALL (     568 calls)
     regterg:upda :    439.46s CPU    443.18s WALL (     568 calls)
     regterg:last :    175.65s CPU    176.86s WALL (      44 calls)
     rdiaghg:chol :     31.33s CPU     32.18s WALL (     611 calls)
     rdiaghg:inve :     35.35s CPU     35.83s WALL (     611 calls)
     rdiaghg:para :     91.94s CPU     96.05s WALL (    1222 calls)

     Called by h_psi:
     h_psi:pot    :   5635.99s CPU   5725.36s WALL (     612 calls)
     h_psi:calbec :    276.98s CPU    281.27s WALL (     612 calls)
     vloc_psi     :   5094.35s CPU   5177.19s WALL (     612 calls)
     add_vuspsi   :    264.66s CPU    266.90s WALL (     612 calls)

     General routines
     calbec       :    361.87s CPU    367.64s WALL (     648 calls)
     fft          :     44.70s CPU     48.98s WALL (     370 calls)
     ffts         :   3049.94s CPU   3102.58s WALL (   69933 calls)
     fftw         :   5595.68s CPU   5689.75s WALL (  200738 calls)
     interpolate  :      4.51s CPU      4.57s WALL (      32 calls)
 
     Parallel routines
     fft_scatt_xy :    193.42s CPU    195.02s WALL (  271041 calls)
     fft_scatt_yz :   7897.52s CPU   8042.40s WALL (  271041 calls)
 
     PWSCF        :      3h36m CPU      3h41m WALL

 
   This run was terminated on:  22:10:58   4Dec2019            

=------------------------------------------------------------------------------=
   JOB DONE.
=------------------------------------------------------------------------------=
