
     Program PWSCF v.6.3 starts on  2Dec2019 at 11:47:25 

     This program is part of the open-source Quantum ESPRESSO suite
     for quantum simulation of materials; please cite
         "P. Giannozzi et al., J. Phys.:Condens. Matter 21 395502 (2009);
         "P. Giannozzi et al., J. Phys.:Condens. Matter 29 465901 (2017);
          URL http://www.quantum-espresso.org", 
     in publications or presentations arising from this work. More details at
     http://www.quantum-espresso.org/quote

     Parallel version (MPI), running on   448 processors

     MPI processes distributed on    14 nodes
     R & G space division:  proc/nbgrp/npool/nimage =     448
     Reading input from scf.pwi
Warning: card &IONS ignored
Warning: card / ignored
Warning: card &CELL ignored
Warning: card    CELL_DOFREE      = '2DXY' ignored
Warning: card / ignored

     Current dimensions of program PWSCF are:
     Max number of different atomic species (ntypx) = 10
     Max number of k-points (npk) =  40000
     Max angular momentum in pseudopotentials (lmaxx) =  3

     gamma-point specific algorithms are used

     Subspace diagonalization in iterative solution of the eigenvalue problem:
     one sub-group per band group will be used
     scalapack distributed-memory algorithm (size of sub-group: 14* 14 procs)

 
     Parallelization info
     --------------------
     sticks:   dense  smooth     PW     G-vecs:    dense   smooth      PW
     Min         460     229     56               184940    65380    8140
     Max         462     232     58               184994    65412    8198
     Sum      206659  103297  25827             82864339 29296605 3662131
 


     bravais-lattice index     =            0
     lattice parameter (alat)  =      74.9798  a.u.
     unit-cell volume          =  613376.7080 (a.u.)^3
     number of atoms/cell      =          200
     number of atomic types    =            1
     number of electrons       =      2800.00
     number of Kohn-Sham states=         1680
     kinetic-energy cutoff     =      50.0000  Ry
     charge density cutoff     =     400.0000  Ry
     convergence threshold     =      2.0E-08
     mixing beta               =       0.4000
     number of iterations used =            8  local-TF  mixing
     Exchange-correlation      = SLA  PW   PSX  PSC ( 1  4 10  8 0 0)

     celldm(1)=  74.979798  celldm(2)=   0.000000  celldm(3)=   0.000000
     celldm(4)=   0.000000  celldm(5)=   0.000000  celldm(6)=   0.000000

     crystal axes: (cart. coord. in units of alat)
               a(1) = (   1.000000   0.000000   0.000000 )  
               a(2) = (   0.000000   1.154702   0.000000 )  
               a(3) = (   0.000000   0.000000   1.260157 )  

     reciprocal axes: (cart. coord. in units 2 pi/alat)
               b(1) = (  1.000000  0.000000  0.000000 )  
               b(2) = (  0.000000  0.866024  0.000000 )  
               b(3) = (  0.000000  0.000000  0.793552 )  


     PseudoPot. # 1 for Sn read from file:
     /n/home08/xiey/q-e/pseudo/sn_pbesol_v1.4.uspp.F.UPF
     MD5 check sum: 463fec1d5456f1e96ec1bfcad4b7b038
     Pseudo is Ultrasoft + core correction, Zval = 14.0
     Generated by new atomic code, or converted to UPF format
     Using radial grid of  891 points,  6 beta functions with: 
                l(1) =   0
                l(2) =   0
                l(3) =   1
                l(4) =   1
                l(5) =   2
                l(6) =   2
     Q(r) pseudized with  8 coefficients,  rinner =    1.350   1.350   1.350
                                                       1.350   1.350

     atomic species   valence    mass     pseudopotential
        Sn            14.00   118.71000     Sn( 1.00)

     No symmetry found


                                    s                        frac. trans.

      isym =  1     identity                                     

 cryst.   s( 1) = (     1          0          0      )
                  (     0          1          0      )
                  (     0          0          1      )

 cart.    s( 1) = (  1.0000000  0.0000000  0.0000000 )
                  (  0.0000000  1.0000000  0.0000000 )
                  (  0.0000000  0.0000000  1.0000000 )


   Cartesian axes

     site n.     atom                  positions (alat units)
         1           Sn  tau(   1) = (   0.0003703   0.0553277   0.0026397  )
         2           Sn  tau(   2) = (   0.0282835   1.1475795   0.0225288  )
         3           Sn  tau(   3) = (   0.1016790   1.1483608   0.0169150  )
         4           Sn  tau(   4) = (   0.1348529   0.0528532   0.0298471  )
         5           Sn  tau(   5) = (   0.2021375   0.0552027   0.0088620  )
         6           Sn  tau(   6) = (   0.2399757   1.1541424   0.0334897  )
         7           Sn  tau(   7) = (   0.3062710   1.1468814   0.0093758  )
         8           Sn  tau(   8) = (   0.3360259   0.0527272   0.0249779  )
         9           Sn  tau(   9) = (   0.4069475   0.0527726   0.0230250  )
        10           Sn  tau(  10) = (   0.4355127   1.1469721   0.0376006  )
        11           Sn  tau(  11) = (   0.5056077   1.1554857   0.0270384  )
        12           Sn  tau(  12) = (   0.5369453   0.0585789   0.0549388  )
        13           Sn  tau(  13) = (   0.6074813   0.0565884   0.0339721  )
        14           Sn  tau(  14) = (   0.6371807   0.0016239   0.0041301  )
        15           Sn  tau(  15) = (   0.7060104   1.1579052   1.2490196  )
        16           Sn  tau(  16) = (   0.7346891   0.0582923   0.0119873  )
        17           Sn  tau(  17) = (   0.8021050   0.0578722   1.2510837  )
        18           Sn  tau(  18) = (   0.8287875   0.0013584   0.0258965  )
        19           Sn  tau(  19) = (   0.8977484   1.1480457   0.0111329  )
        20           Sn  tau(  20) = (   0.9313819   0.0535879   0.0221582  )
        21           Sn  tau(  21) = (   0.0028518   0.1622439   0.0040999  )
        22           Sn  tau(  22) = (   0.0423577   0.1052755   0.0259590  )
        23           Sn  tau(  23) = (   0.1080733   0.1044486   1.2553456  )
        24           Sn  tau(  24) = (   0.1313429   0.1665179   0.0157214  )
        25           Sn  tau(  25) = (   0.2030307   0.1700390   0.0116913  )
        26           Sn  tau(  26) = (   0.2358129   0.1121144   0.0310528  )
        27           Sn  tau(  27) = (   0.2988991   0.1073704   0.0057408  )
        28           Sn  tau(  28) = (   0.3327772   0.1646781   0.0274145  )
        29           Sn  tau(  29) = (   0.4012894   0.1776960   0.0246637  )
        30           Sn  tau(  30) = (   0.4330000   0.1168478   0.0280708  )
        31           Sn  tau(  31) = (   0.5010812   0.1159085   0.0389812  )
        32           Sn  tau(  32) = (   0.5333841   0.1741502   0.0539478  )
        33           Sn  tau(  33) = (   0.5902348   0.1696111   0.0124542  )
        34           Sn  tau(  34) = (   0.6343781   0.1181994   0.0249675  )
        35           Sn  tau(  35) = (   0.7004204   0.1189598   1.2578306  )
        36           Sn  tau(  36) = (   0.7356090   0.1791300   0.0119332  )
        37           Sn  tau(  37) = (   0.8004693   0.1760704   1.2518222  )
        38           Sn  tau(  38) = (   0.8361065   0.1187146   0.0058345  )
        39           Sn  tau(  39) = (   0.9053899   0.1187945   0.0043999  )
        40           Sn  tau(  40) = (   0.9369644   0.1777930   0.0227681  )
        41           Sn  tau(  41) = (   0.0057285   0.2817988   1.2507511  )
        42           Sn  tau(  42) = (   0.0406879   0.2221102   0.0151736  )
        43           Sn  tau(  43) = (   0.1022544   0.2199858   1.2451333  )
        44           Sn  tau(  44) = (   0.1333178   0.2809570   1.2535310  )
        45           Sn  tau(  45) = (   0.2034692   0.2787870   1.2417737  )
        46           Sn  tau(  46) = (   0.2307740   0.2291414   0.0248184  )
        47           Sn  tau(  47) = (   0.2988890   0.2255003   0.0224206  )
        48           Sn  tau(  48) = (   0.3292765   0.2887826   0.0317166  )
        49           Sn  tau(  49) = (   0.3987439   0.2862194   0.0142809  )
        50           Sn  tau(  50) = (   0.4364452   0.2371346   0.0459993  )
        51           Sn  tau(  51) = (   0.4966681   0.2233207   0.0135720  )
        52           Sn  tau(  52) = (   0.5326103   0.2870108   0.0227980  )
        53           Sn  tau(  53) = (   0.6017350   0.2918070   0.0070229  )
        54           Sn  tau(  54) = (   0.6304388   0.2296152   0.0166991  )
        55           Sn  tau(  55) = (   0.6980059   0.2356970  -0.0009930  )
        56           Sn  tau(  56) = (   0.7323099   0.2884348   0.0394278  )
        57           Sn  tau(  57) = (   0.8047563   0.2935157   0.0402093  )
        58           Sn  tau(  58) = (   0.8345414   0.2364634   0.0141485  )
        59           Sn  tau(  59) = (   0.9028923   0.2308433  -0.0079163  )
        60           Sn  tau(  60) = (   0.9376122   0.2867311   0.0166295  )
        61           Sn  tau(  61) = (   0.9976107   0.4016196   1.2443671  )
        62           Sn  tau(  62) = (   0.0341351   0.3440127   0.0010803  )
        63           Sn  tau(  63) = (   0.1040809   0.3431054   1.2396768  )
        64           Sn  tau(  64) = (   0.1382901   0.4001351   1.2235695  )
        65           Sn  tau(  65) = (   0.1996530   0.3997948   1.2530370  )
        66           Sn  tau(  66) = (   0.2298388   0.3376263   0.0040661  )
        67           Sn  tau(  67) = (   0.3003433   0.3408195   1.2537099  )
        68           Sn  tau(  68) = (   0.3338735   0.4003292   0.0004389  )
        69           Sn  tau(  69) = (   0.4044247   0.4050270   1.2587278  )
        70           Sn  tau(  70) = (   0.4295396   0.3461701   0.0221633  )
        71           Sn  tau(  71) = (   0.4969832   0.3452830   0.0310336  )
        72           Sn  tau(  72) = (   0.5305109   0.4073356   0.0222013  )
        73           Sn  tau(  73) = (   0.6016493   0.4112346   0.0228494  )
        74           Sn  tau(  74) = (   0.6340630   0.3480402   0.0344386  )
        75           Sn  tau(  75) = (   0.7001734   0.3502530   0.0350737  )
        76           Sn  tau(  76) = (   0.7368666   0.4087168   0.0516521  )
        77           Sn  tau(  77) = (   0.8025284   0.4072651   0.0625892  )
        78           Sn  tau(  78) = (   0.8429441   0.3487106   0.0531796  )
        79           Sn  tau(  79) = (   0.8985196   0.3423367   0.0131243  )
        80           Sn  tau(  80) = (   0.9472221   0.3926397   0.0311312  )
        81           Sn  tau(  81) = (   0.0009665   0.5215487   1.2504864  )
        82           Sn  tau(  82) = (   0.0342821   0.4602622   1.2598822  )
        83           Sn  tau(  83) = (   0.1030481   0.4579586   1.2484349  )
        84           Sn  tau(  84) = (   0.1394142   0.5203339   1.2641264  )
        85           Sn  tau(  85) = (   0.2068139   0.5203087   1.2425096  )
        86           Sn  tau(  86) = (   0.2304522   0.4600808   0.0118493  )
        87           Sn  tau(  87) = (   0.2996225   0.4632639   1.2521448  )
        88           Sn  tau(  88) = (   0.3282305   0.5146254   0.0279198  )
        89           Sn  tau(  89) = (   0.3953969   0.5164728   1.2615330  )
        90           Sn  tau(  90) = (   0.4303763   0.4630724   0.0278699  )
        91           Sn  tau(  91) = (   0.4931069   0.4615299  -0.0041528  )
        92           Sn  tau(  92) = (   0.5295179   0.5191846   0.0159836  )
        93           Sn  tau(  93) = (   0.5994213   0.5203137   1.2572862  )
        94           Sn  tau(  94) = (   0.6347788   0.4710189   0.0351677  )
        95           Sn  tau(  95) = (   0.7047024   0.4655171   0.0220973  )
        96           Sn  tau(  96) = (   0.7455189   0.5219066   0.0028542  )
        97           Sn  tau(  97) = (   0.8134892   0.5195551   0.0126469  )
        98           Sn  tau(  98) = (   0.8406658   0.4616610   0.0429061  )
        99           Sn  tau(  99) = (   0.9073608   0.4540774   0.0224873  )
       100           Sn  tau( 100) = (   0.9350792   0.5189124   0.0175386  )
       101           Sn  tau( 101) = (   0.0036093   0.6281000   1.2456273  )
       102           Sn  tau( 102) = (   0.0432330   0.5738578   0.0043763  )
       103           Sn  tau( 103) = (   0.1047619   0.5702210   1.2298173  )
       104           Sn  tau( 104) = (   0.1292621   0.6323644   1.2498967  )
       105           Sn  tau( 105) = (   0.2003123   0.6346679   1.2559353  )
       106           Sn  tau( 106) = (   0.2369803   0.5782104   0.0121111  )
       107           Sn  tau( 107) = (   0.3067701   0.5767183   1.2597435  )
       108           Sn  tau( 108) = (   0.3300855   0.6356458   0.0234711  )
       109           Sn  tau( 109) = (   0.3987792   0.6355904   1.2664173  )
       110           Sn  tau( 110) = (   0.4344718   0.5781297   0.0172532  )
       111           Sn  tau( 111) = (   0.5030143   0.5802846   1.2519684  )
       112           Sn  tau( 112) = (   0.5327515   0.6308471   0.0231581  )
       113           Sn  tau( 113) = (   0.5958601   0.6369942   1.2520289  )
       114           Sn  tau( 114) = (   0.6349905   0.5807887   0.0094446  )
       115           Sn  tau( 115) = (   0.7051787   0.5795537   1.2522809  )
       116           Sn  tau( 116) = (   0.7314429   0.6401395   0.0191802  )
       117           Sn  tau( 117) = (   0.8007390   0.6331809   0.0082583  )
       118           Sn  tau( 118) = (   0.8389746   0.5832762   0.0339688  )
       119           Sn  tau( 119) = (   0.8983986   0.5733663   1.2575005  )
       120           Sn  tau( 120) = (   0.9337485   0.6329944   1.2667324  )
       121           Sn  tau( 121) = (   0.0001174   0.7433943   0.0227479  )
       122           Sn  tau( 122) = (   0.0348265   0.6933408   1.2495892  )
       123           Sn  tau( 123) = (   0.1064555   0.6971389   1.2399238  )
       124           Sn  tau( 124) = (   0.1393862   0.7499420   0.0031244  )
       125           Sn  tau( 125) = (   0.2073840   0.7522280   1.2440521  )
       126           Sn  tau( 126) = (   0.2293853   0.6971843   0.0200638  )
       127           Sn  tau( 127) = (   0.2976465   0.6979908   0.0128190  )
       128           Sn  tau( 128) = (   0.3442295   0.7535536   0.0084948  )
       129           Sn  tau( 129) = (   0.4150049   0.7508670   0.0105447  )
       130           Sn  tau( 130) = (   0.4343836   0.6889605   0.0360750  )
       131           Sn  tau( 131) = (   0.5032890   0.6913951   0.0215262  )
       132           Sn  tau( 132) = (   0.5415499   0.7538258   0.0328271  )
       133           Sn  tau( 133) = (   0.6003362   0.7509628  -0.0063988  )
       134           Sn  tau( 134) = (   0.6276589   0.6937693   0.0203056  )
       135           Sn  tau( 135) = (   0.6937239   0.6926629   1.2598771  )
       136           Sn  tau( 136) = (   0.7320806   0.7476233   0.0076429  )
       137           Sn  tau( 137) = (   0.8013640   0.7475503   1.2499446  )
       138           Sn  tau( 138) = (   0.8358293   0.6933534   0.0179443  )
       139           Sn  tau( 139) = (   0.8981088   0.6886379   1.2412722  )
       140           Sn  tau( 140) = (   0.9298042   0.7434245   0.0144000  )
       141           Sn  tau( 141) = (  -0.0036933   0.8647776  -0.0013045  )
       142           Sn  tau( 142) = (   0.0345328   0.8074127   0.0164942  )
       143           Sn  tau( 143) = (   0.1015674   0.8090484   1.2440672  )
       144           Sn  tau( 144) = (   0.1346629   0.8584793   0.0221745  )
       145           Sn  tau( 145) = (   0.2003065   0.8682708  -0.0060491  )
       146           Sn  tau( 146) = (   0.2394046   0.8103363   0.0104335  )
       147           Sn  tau( 147) = (   0.3044665   0.8093408   1.2521750  )
       148           Sn  tau( 148) = (   0.3356730   0.8654304   0.0179614  )
       149           Sn  tau( 149) = (   0.4036030   0.8642761   0.0158571  )
       150           Sn  tau( 150) = (   0.4399082   0.8117074   0.0439157  )
       151           Sn  tau( 151) = (   0.4988558   0.8034760   0.0026641  )
       152           Sn  tau( 152) = (   0.5403830   0.8604427  -0.0029757  )
       153           Sn  tau( 153) = (   0.6095883   0.8684522   1.2609054  )
       154           Sn  tau( 154) = (   0.6356408   0.8084713   0.0178496  )
       155           Sn  tau( 155) = (   0.7010958   0.8119670   1.2539140  )
       156           Sn  tau( 156) = (   0.7376454   0.8616927   0.0265066  )
       157           Sn  tau( 157) = (   0.8033172   0.8642408   0.0038643  )
       158           Sn  tau( 158) = (   0.8346649   0.8018227   0.0189755  )
       159           Sn  tau( 159) = (   0.9031620   0.8055477   1.2486920  )
       160           Sn  tau( 160) = (   0.9274679   0.8673508   0.0140603  )
       161           Sn  tau( 161) = (   0.9992767   0.9782749   0.0113068  )
       162           Sn  tau( 162) = (   0.0305107   0.9193021   0.0283326  )
       163           Sn  tau( 163) = (   0.0985586   0.9178151   0.0157118  )
       164           Sn  tau( 164) = (   0.1344494   0.9737686   0.0326721  )
       165           Sn  tau( 165) = (   0.2026194   0.9737030   0.0107472  )
       166           Sn  tau( 166) = (   0.2377112   0.9176588   0.0307551  )
       167           Sn  tau( 167) = (   0.2999098   0.9258826   0.0008306  )
       168           Sn  tau( 168) = (   0.3335282   0.9807398   0.0266705  )
       169           Sn  tau( 169) = (   0.3996688   0.9747641   1.2594058  )
       170           Sn  tau( 170) = (   0.4408256   0.9220895   0.0243485  )
       171           Sn  tau( 171) = (   0.5071300   0.9217367  -0.0010849  )
       172           Sn  tau( 172) = (   0.5373813   0.9834264   0.0107633  )
       173           Sn  tau( 173) = (   0.6053063   0.9848202   1.2633652  )
       174           Sn  tau( 174) = (   0.6356282   0.9270722   0.0268575  )
       175           Sn  tau( 175) = (   0.7075352   0.9203934   0.0064516  )
       176           Sn  tau( 176) = (   0.7351579   0.9858812   0.0178836  )
       177           Sn  tau( 177) = (   0.7974424   0.9888527   1.2487852  )
       178           Sn  tau( 178) = (   0.8322278   0.9303209   1.2474142  )
       179           Sn  tau( 179) = (   0.9026680   0.9234606   1.2414335  )
       180           Sn  tau( 180) = (   0.9303007   0.9728915   0.0235140  )
       181           Sn  tau( 181) = (   0.0006333   1.0901390   1.2522582  )
       182           Sn  tau( 182) = (   0.0365088   1.0373208   0.0187316  )
       183           Sn  tau( 183) = (   0.1031345   1.0309873   0.0027381  )
       184           Sn  tau( 184) = (   0.1382926   1.0893048   0.0296253  )
       185           Sn  tau( 185) = (   0.2041119   1.0984334   0.0026375  )
       186           Sn  tau( 186) = (   0.2312158   1.0340696   0.0217730  )
       187           Sn  tau( 187) = (   0.2988916   1.0388204   0.0093335  )
       188           Sn  tau( 188) = (   0.3361494   1.0907716   0.0333443  )
       189           Sn  tau( 189) = (   0.4008912   1.0981057   1.2601695  )
       190           Sn  tau( 190) = (   0.4336880   1.0370234   0.0104872  )
       191           Sn  tau( 191) = (   0.4980014   1.0379358   1.2529437  )
       192           Sn  tau( 192) = (   0.5305512   1.0909506   0.0281451  )
       193           Sn  tau( 193) = (   0.5934457   1.0971379   0.0007133  )
       194           Sn  tau( 194) = (   0.6290451   1.0435510   0.0323432  )
       195           Sn  tau( 195) = (   0.6961283   1.0445768   0.0165412  )
       196           Sn  tau( 196) = (   0.7320428   1.1048854   0.0258609  )
       197           Sn  tau( 197) = (   0.7993351   1.0977756   0.0050376  )
       198           Sn  tau( 198) = (   0.8347128   1.0367411   0.0200866  )
       199           Sn  tau( 199) = (   0.9017834   1.0327288  -0.0009200  )
       200           Sn  tau( 200) = (   0.9359034   1.0891964   0.0205648  )

   Crystallographic axes

     site n.     atom                  positions (cryst. coord.)
         1           Sn  tau(   1) = (  0.0003703  0.0479151  0.0020948  )
         2           Sn  tau(   2) = (  0.0282835  0.9938318  0.0178777  )
         3           Sn  tau(   3) = (  0.1016790  0.9945084  0.0134229  )
         4           Sn  tau(   4) = (  0.1348529  0.0457722  0.0236852  )
         5           Sn  tau(   5) = (  0.2021375  0.0478069  0.0070324  )
         6           Sn  tau(   6) = (  0.2399757  0.9995155  0.0265758  )
         7           Sn  tau(   7) = (  0.3062710  0.9932272  0.0074402  )
         8           Sn  tau(   8) = (  0.3360259  0.0456631  0.0198212  )
         9           Sn  tau(   9) = (  0.4069475  0.0457024  0.0182716  )
        10           Sn  tau(  10) = (  0.4355127  0.9933058  0.0298380  )
        11           Sn  tau(  11) = (  0.5056077  1.0006788  0.0214564  )
        12           Sn  tau(  12) = (  0.5369453  0.0507308  0.0435968  )
        13           Sn  tau(  13) = (  0.6074813  0.0490069  0.0269586  )
        14           Sn  tau(  14) = (  0.6371807  0.0014063  0.0032774  )
        15           Sn  tau(  15) = (  0.7060104  1.0027742  0.9911620  )
        16           Sn  tau(  16) = (  0.7346891  0.0504826  0.0095125  )
        17           Sn  tau(  17) = (  0.8021050  0.0501187  0.9928000  )
        18           Sn  tau(  18) = (  0.8287875  0.0011764  0.0205502  )
        19           Sn  tau(  19) = (  0.8977484  0.9942356  0.0088345  )
        20           Sn  tau(  20) = (  0.9313819  0.0464084  0.0175837  )
        21           Sn  tau(  21) = (  0.0028518  0.1405072  0.0032535  )
        22           Sn  tau(  22) = (  0.0423577  0.0911712  0.0205998  )
        23           Sn  tau(  23) = (  0.1080733  0.0904550  0.9961820  )
        24           Sn  tau(  24) = (  0.1313429  0.1442085  0.0124757  )
        25           Sn  tau(  25) = (  0.2030307  0.1472579  0.0092777  )
        26           Sn  tau(  26) = (  0.2358129  0.0970938  0.0246420  )
        27           Sn  tau(  27) = (  0.2988991  0.0929854  0.0045556  )
        28           Sn  tau(  28) = (  0.3327772  0.1426152  0.0217548  )
        29           Sn  tau(  29) = (  0.4012894  0.1538891  0.0195719  )
        30           Sn  tau(  30) = (  0.4330000  0.1011930  0.0222756  )
        31           Sn  tau(  31) = (  0.5010812  0.1003796  0.0309336  )
        32           Sn  tau(  32) = (  0.5333841  0.1508183  0.0428104  )
        33           Sn  tau(  33) = (  0.5902348  0.1468873  0.0098830  )
        34           Sn  tau(  34) = (  0.6343781  0.1023636  0.0198130  )
        35           Sn  tau(  35) = (  0.7004204  0.1030221  0.9981540  )
        36           Sn  tau(  36) = (  0.7356090  0.1551310  0.0094696  )
        37           Sn  tau(  37) = (  0.8004693  0.1524812  0.9933860  )
        38           Sn  tau(  38) = (  0.8361065  0.1028097  0.0046299  )
        39           Sn  tau(  39) = (  0.9053899  0.1028789  0.0034916  )
        40           Sn  tau(  40) = (  0.9369644  0.1539731  0.0180677  )
        41           Sn  tau(  41) = (  0.0057285  0.2440446  0.9925360  )
        42           Sn  tau(  42) = (  0.0406879  0.1923529  0.0120411  )
        43           Sn  tau(  43) = (  0.1022544  0.1905131  0.9880780  )
        44           Sn  tau(  44) = (  0.1333178  0.2433156  0.9947420  )
        45           Sn  tau(  45) = (  0.2034692  0.2414364  0.9854120  )
        46           Sn  tau(  46) = (  0.2307740  0.1984420  0.0196947  )
        47           Sn  tau(  47) = (  0.2988890  0.1952887  0.0177919  )
        48           Sn  tau(  48) = (  0.3292765  0.2500928  0.0251688  )
        49           Sn  tau(  49) = (  0.3987439  0.2478730  0.0113326  )
        50           Sn  tau(  50) = (  0.4364452  0.2053643  0.0365028  )
        51           Sn  tau(  51) = (  0.4966681  0.1934012  0.0107701  )
        52           Sn  tau(  52) = (  0.5326103  0.2485584  0.0180914  )
        53           Sn  tau(  53) = (  0.6017350  0.2527119  0.0055730  )
        54           Sn  tau(  54) = (  0.6304388  0.1988524  0.0132516  )
        55           Sn  tau(  55) = (  0.6980059  0.2041193 -0.0007880  )
        56           Sn  tau(  56) = (  0.7323099  0.2497916  0.0312880  )
        57           Sn  tau(  57) = (  0.8047563  0.2541918  0.0319082  )
        58           Sn  tau(  58) = (  0.8345414  0.2047831  0.0112276  )
        59           Sn  tau(  59) = (  0.9028923  0.1999160 -0.0062820  )
        60           Sn  tau(  60) = (  0.9376122  0.2483161  0.0131964  )
        61           Sn  tau(  61) = (  0.9976107  0.3478123  0.9874700  )
        62           Sn  tau(  62) = (  0.0341351  0.2979234  0.0008573  )
        63           Sn  tau(  63) = (  0.1040809  0.2971377  0.9837480  )
        64           Sn  tau(  64) = (  0.1382901  0.3465267  0.9709660  )
        65           Sn  tau(  65) = (  0.1996530  0.3462321  0.9943500  )
        66           Sn  tau(  66) = (  0.2298388  0.2923926  0.0032267  )
        67           Sn  tau(  67) = (  0.3003433  0.2951580  0.9948840  )
        68           Sn  tau(  68) = (  0.3338735  0.3466948  0.0003483  )
        69           Sn  tau(  69) = (  0.4044247  0.3507633  0.9988660  )
        70           Sn  tau(  70) = (  0.4295396  0.2997918  0.0175878  )
        71           Sn  tau(  71) = (  0.4969832  0.2990235  0.0246268  )
        72           Sn  tau(  72) = (  0.5305109  0.3527626  0.0176179  )
        73           Sn  tau(  73) = (  0.6016493  0.3561391  0.0181322  )
        74           Sn  tau(  74) = (  0.6340630  0.3014113  0.0273288  )
        75           Sn  tau(  75) = (  0.7001734  0.3033277  0.0278328  )
        76           Sn  tau(  76) = (  0.7368666  0.3539587  0.0409886  )
        77           Sn  tau(  77) = (  0.8025284  0.3527015  0.0496678  )
        78           Sn  tau(  78) = (  0.8429441  0.3019919  0.0422008  )
        79           Sn  tau(  79) = (  0.8985196  0.2964720  0.0104148  )
        80           Sn  tau(  80) = (  0.9472221  0.3400355  0.0247042  )
        81           Sn  tau(  81) = (  0.0009665  0.4516739  0.9923260  )
        82           Sn  tau(  82) = (  0.0342821  0.3985983  0.9997820  )
        83           Sn  tau(  83) = (  0.1030481  0.3966034  0.9906980  )
        84           Sn  tau(  84) = (  0.1394142  0.4506218  1.0031500  )
        85           Sn  tau(  85) = (  0.2068139  0.4506000  0.9859960  )
        86           Sn  tau(  86) = (  0.2304522  0.3984411  0.0094030  )
        87           Sn  tau(  87) = (  0.2996225  0.4011978  0.9936420  )
        88           Sn  tau(  88) = (  0.3282305  0.4456781  0.0221558  )
        89           Sn  tau(  89) = (  0.3953969  0.4472780  1.0010920  )
        90           Sn  tau(  90) = (  0.4303763  0.4010320  0.0221162  )
        91           Sn  tau(  91) = (  0.4931069  0.3996962 -0.0032955  )
        92           Sn  tau(  92) = (  0.5295179  0.4496265  0.0126838  )
        93           Sn  tau(  93) = (  0.5994213  0.4506044  0.9977220  )
        94           Sn  tau(  94) = (  0.6347788  0.4079139  0.0279074  )
        95           Sn  tau(  95) = (  0.7047024  0.4031491  0.0175354  )
        96           Sn  tau(  96) = (  0.7455189  0.4519838  0.0022649  )
        97           Sn  tau(  97) = (  0.8134892  0.4499474  0.0100359  )
        98           Sn  tau(  98) = (  0.8406658  0.3998097  0.0340482  )
        99           Sn  tau(  99) = (  0.9073608  0.3932421  0.0178449  )
       100           Sn  tau( 100) = (  0.9350792  0.4493908  0.0139178  )
       101           Sn  tau( 101) = (  0.0036093  0.5439499  0.9884700  )
       102           Sn  tau( 102) = (  0.0432330  0.4969748  0.0034728  )
       103           Sn  tau( 103) = (  0.1047619  0.4938253  0.9759240  )
       104           Sn  tau( 104) = (  0.1292621  0.5476430  0.9918580  )
       105           Sn  tau( 105) = (  0.2003123  0.5496379  0.9966500  )
       106           Sn  tau( 106) = (  0.2369803  0.5007443  0.0096108  )
       107           Sn  tau( 107) = (  0.3067701  0.4994522  0.9996720  )
       108           Sn  tau( 108) = (  0.3300855  0.5504848  0.0186255  )
       109           Sn  tau( 109) = (  0.3987792  0.5504367  1.0049680  )
       110           Sn  tau( 110) = (  0.4344718  0.5006744  0.0136913  )
       111           Sn  tau( 111) = (  0.5030143  0.5025406  0.9935020  )
       112           Sn  tau( 112) = (  0.5327515  0.5463290  0.0183771  )
       113           Sn  tau( 113) = (  0.5958601  0.5516525  0.9935500  )
       114           Sn  tau( 114) = (  0.6349905  0.5029771  0.0074948  )
       115           Sn  tau( 115) = (  0.7051787  0.5019076  0.9937500  )
       116           Sn  tau( 116) = (  0.7314429  0.5543764  0.0152205  )
       117           Sn  tau( 117) = (  0.8007390  0.5483501  0.0065534  )
       118           Sn  tau( 118) = (  0.8389746  0.5051314  0.0269560  )
       119           Sn  tau( 119) = (  0.8983986  0.4965492  0.9978920  )
       120           Sn  tau( 120) = (  0.9337485  0.5481886  1.0052180  )
       121           Sn  tau( 121) = (  0.0001174  0.6437976  0.0180516  )
       122           Sn  tau( 122) = (  0.0348265  0.6004501  0.9916140  )
       123           Sn  tau( 123) = (  0.1064555  0.6037393  0.9839440  )
       124           Sn  tau( 124) = (  0.1393862  0.6494681  0.0024794  )
       125           Sn  tau( 125) = (  0.2073840  0.6514478  0.9872200  )
       126           Sn  tau( 126) = (  0.2293853  0.6037786  0.0159217  )
       127           Sn  tau( 127) = (  0.2976465  0.6044771  0.0101725  )
       128           Sn  tau( 128) = (  0.3442295  0.6525958  0.0067411  )
       129           Sn  tau( 129) = (  0.4150049  0.6502691  0.0083677  )
       130           Sn  tau( 130) = (  0.4343836  0.5966566  0.0286274  )
       131           Sn  tau( 131) = (  0.5032890  0.5987651  0.0170821  )
       132           Sn  tau( 132) = (  0.5415499  0.6528316  0.0260500  )
       133           Sn  tau( 133) = (  0.6003362  0.6503521 -0.0050778  )
       134           Sn  tau( 134) = (  0.6276589  0.6008211  0.0161135  )
       135           Sn  tau( 135) = (  0.6937239  0.5998629  0.9997780  )
       136           Sn  tau( 136) = (  0.7320806  0.6474600  0.0060650  )
       137           Sn  tau( 137) = (  0.8013640  0.6473967  0.9918960  )
       138           Sn  tau( 138) = (  0.8358293  0.6004610  0.0142397  )
       139           Sn  tau( 139) = (  0.8981088  0.5963772  0.9850140  )
       140           Sn  tau( 140) = (  0.9298042  0.6438237  0.0114272  )
       141           Sn  tau( 141) = ( -0.0036933  0.7489185 -0.0010352  )
       142           Sn  tau( 142) = (  0.0345328  0.6992391  0.0130890  )
       143           Sn  tau( 143) = (  0.1015674  0.7006557  0.9872320  )
       144           Sn  tau( 144) = (  0.1346629  0.7434640  0.0175966  )
       145           Sn  tau( 145) = (  0.2003065  0.7519437 -0.0048003  )
       146           Sn  tau( 146) = (  0.2394046  0.7017710  0.0082796  )
       147           Sn  tau( 147) = (  0.3044665  0.7009089  0.9936660  )
       148           Sn  tau( 148) = (  0.3356730  0.7494838  0.0142533  )
       149           Sn  tau( 149) = (  0.4036030  0.7484841  0.0125834  )
       150           Sn  tau( 150) = (  0.4399082  0.7029584  0.0348494  )
       151           Sn  tau( 151) = (  0.4988558  0.6958298  0.0021141  )
       152           Sn  tau( 152) = (  0.5403830  0.7451643 -0.0023613  )
       153           Sn  tau( 153) = (  0.6095883  0.7521008  1.0005940  )
       154           Sn  tau( 154) = (  0.6356408  0.7001558  0.0141646  )
       155           Sn  tau( 155) = (  0.7010958  0.7031832  0.9950460  )
       156           Sn  tau( 156) = (  0.7376454  0.7462469  0.0210344  )
       157           Sn  tau( 157) = (  0.8033172  0.7484536  0.0030666  )
       158           Sn  tau( 158) = (  0.8346649  0.6943980  0.0150580  )
       159           Sn  tau( 159) = (  0.9031620  0.6976240  0.9909020  )
       160           Sn  tau( 160) = (  0.9274679  0.7511470  0.0111575  )
       161           Sn  tau( 161) = (  0.9992767  0.8472099  0.0089725  )
       162           Sn  tau( 162) = (  0.0305107  0.7961380  0.0224834  )
       163           Sn  tau( 163) = (  0.0985586  0.7948502  0.0124681  )
       164           Sn  tau( 164) = (  0.1344494  0.8433073  0.0259270  )
       165           Sn  tau( 165) = (  0.2026194  0.8432506  0.0085285  )
       166           Sn  tau( 166) = (  0.2377112  0.7947149  0.0244058  )
       167           Sn  tau( 167) = (  0.2999098  0.8018369  0.0006591  )
       168           Sn  tau( 168) = (  0.3335282  0.8493445  0.0211644  )
       169           Sn  tau( 169) = (  0.3996688  0.8441695  0.9994040  )
       170           Sn  tau( 170) = (  0.4408256  0.7985520  0.0193218  )
       171           Sn  tau( 171) = (  0.5071300  0.7982465 -0.0008609  )
       172           Sn  tau( 172) = (  0.5373813  0.8516713  0.0085412  )
       173           Sn  tau( 173) = (  0.6053063  0.8528783  1.0025460  )
       174           Sn  tau( 174) = (  0.6356282  0.8028671  0.0213128  )
       175           Sn  tau( 175) = (  0.7075352  0.7970831  0.0051197  )
       176           Sn  tau( 176) = (  0.7351579  0.8537972  0.0141916  )
       177           Sn  tau( 177) = (  0.7974424  0.8563705  0.9909760  )
       178           Sn  tau( 178) = (  0.8322278  0.8056806  0.9898880  )
       179           Sn  tau( 179) = (  0.9026680  0.7997394  0.9851420  )
       180           Sn  tau( 180) = (  0.9303007  0.8425478  0.0186596  )
       181           Sn  tau( 181) = (  0.0006333  0.9440870  0.9937320  )
       182           Sn  tau( 182) = (  0.0365088  0.8983451  0.0148645  )
       183           Sn  tau( 183) = (  0.1031345  0.8928601  0.0021728  )
       184           Sn  tau( 184) = (  0.1382926  0.9433645  0.0235092  )
       185           Sn  tau( 185) = (  0.2041119  0.9512701  0.0020930  )
       186           Sn  tau( 186) = (  0.2312158  0.8955295  0.0172780  )
       187           Sn  tau( 187) = (  0.2988916  0.8996438  0.0074066  )
       188           Sn  tau( 188) = (  0.3361494  0.9446348  0.0264604  )
       189           Sn  tau( 189) = (  0.4008912  0.9509863  1.0000100  )
       190           Sn  tau( 190) = (  0.4336880  0.8980876  0.0083221  )
       191           Sn  tau( 191) = (  0.4980014  0.8988777  0.9942760  )
       192           Sn  tau( 192) = (  0.5305512  0.9447898  0.0223346  )
       193           Sn  tau( 193) = (  0.5934457  0.9501482  0.0005661  )
       194           Sn  tau( 194) = (  0.6290451  0.9037406  0.0256660  )
       195           Sn  tau( 195) = (  0.6961283  0.9046290  0.0131263  )
       196           Sn  tau( 196) = (  0.7320428  0.9568577  0.0205220  )
       197           Sn  tau( 197) = (  0.7993351  0.9507004  0.0039976  )
       198           Sn  tau( 198) = (  0.8347128  0.8978431  0.0159398  )
       199           Sn  tau( 199) = (  0.9017834  0.8943683 -0.0007301  )
       200           Sn  tau( 200) = (  0.9359034  0.9432707  0.0163192  )

     number of k points=     1  Marzari-Vanderbilt smearing, width (Ry)=  0.0200
                       cart. coord. in units 2pi/alat
        k(    1) = (   0.0000000   0.0000000   0.0000000), wk =   2.0000000

                       cryst. coord.
        k(    1) = (   0.0000000   0.0000000   0.0000000), wk =   2.0000000

     Dense  grid: 41432170 G-vectors     FFT dimensions: ( 480, 576, 625)

     Smooth grid: 14648303 G-vectors     FFT dimensions: ( 360, 400, 432)

     Dynamical RAM for                 wfc:     104.77 MB

     Dynamical RAM for     wfc (w. buffer):     104.77 MB

     Dynamical RAM for           str. fact:       1.41 MB

     Dynamical RAM for           local pot:       0.00 MB

     Dynamical RAM for          nlocal pot:     224.51 MB

     Dynamical RAM for                qrad:      19.12 MB

     Dynamical RAM for          rho,v,vnew:      16.89 MB

     Dynamical RAM for               rhoin:       5.63 MB

     Dynamical RAM for            rho*nmix:      22.58 MB

     Dynamical RAM for           G-vectors:       5.54 MB

     Dynamical RAM for          h,s,v(r/c):       5.27 MB

     Dynamical RAM for          <psi|beta>:      46.14 MB

     Dynamical RAM for                 psi:     419.08 MB

     Dynamical RAM for                hpsi:     419.08 MB

     Dynamical RAM for                spsi:     419.08 MB

     Dynamical RAM for      wfcinit/wfcrot:     298.68 MB

     Dynamical RAM for           addusdens:     544.66 MB

     Dynamical RAM for          addusforce:    1107.74 MB

     Dynamical RAM for         addusstress:     283.62 MB

     Estimated static dynamical RAM per process >     424.36 MB

     Estimated max dynamical RAM per process >       1.69 GB

     Estimated total dynamical RAM >     758.19 GB

     Initial potential from superposition of free atoms

     starting charge 2599.99167, renormalised to 2800.00000

     negative rho (up, down):  1.851E-01 0.000E+00
     Starting wfcs are 1800 atomic wfcs

     total cpu time spent up to now is      115.7 secs

     Self-consistent Calculation

     iteration #  1     ecut=    50.00 Ry     beta= 0.40
     Davidson diagonalization with overlap
     ethr =  1.00E-02,  avg # of iterations =  8.0

     negative rho (up, down):  2.862E+00 0.000E+00

     total cpu time spent up to now is      656.7 secs

     total energy              =  -31818.38548685 Ry
     Harris-Foulkes estimate   =  -31886.75415379 Ry
     estimated scf accuracy    <     277.23748018 Ry

     iteration #  2     ecut=    50.00 Ry     beta= 0.40
     Davidson diagonalization with overlap
     ethr =  9.90E-03,  avg # of iterations =  1.0

     negative rho (up, down):  1.087E+01 0.000E+00

     total cpu time spent up to now is      980.6 secs

     total energy              =  -31742.77995424 Ry
     Harris-Foulkes estimate   =  -31824.58785666 Ry
     estimated scf accuracy    <     138.62006414 Ry

     iteration #  3     ecut=    50.00 Ry     beta= 0.40
     Davidson diagonalization with overlap
     ethr =  4.95E-03,  avg # of iterations =  3.0

     negative rho (up, down):  1.075E+01 0.000E+00

     total cpu time spent up to now is     1357.3 secs

     total energy              =  -31775.69234496 Ry
     Harris-Foulkes estimate   =  -31778.28808351 Ry
     estimated scf accuracy    <       7.29869237 Ry

     iteration #  4     ecut=    50.00 Ry     beta= 0.40
     Davidson diagonalization with overlap
     ethr =  2.61E-04,  avg # of iterations = 14.0

     negative rho (up, down):  1.168E+01 0.000E+00

     total cpu time spent up to now is     1791.8 secs

     total energy              =  -31775.07155460 Ry
     Harris-Foulkes estimate   =  -31776.54741250 Ry
     estimated scf accuracy    <       4.21501638 Ry

     iteration #  5     ecut=    50.00 Ry     beta= 0.40
     Davidson diagonalization with overlap
     ethr =  1.51E-04,  avg # of iterations =  9.0

     negative rho (up, down):  9.989E+00 0.000E+00

     total cpu time spent up to now is     2064.8 secs

     total energy              =  -31775.07486209 Ry
     Harris-Foulkes estimate   =  -31775.37712298 Ry
     estimated scf accuracy    <       1.45625952 Ry

     iteration #  6     ecut=    50.00 Ry     beta= 0.40
     Davidson diagonalization with overlap
     ethr =  5.20E-05,  avg # of iterations =  6.0

     negative rho (up, down):  7.310E+00 0.000E+00

     total cpu time spent up to now is     2295.4 secs

     total energy              =  -31774.66655126 Ry
     Harris-Foulkes estimate   =  -31775.15496413 Ry
     estimated scf accuracy    <       1.06926499 Ry

     iteration #  7     ecut=    50.00 Ry     beta= 0.40
     Davidson diagonalization with overlap
     ethr =  3.82E-05,  avg # of iterations = 15.0

     negative rho (up, down):  6.109E+00 0.000E+00

     total cpu time spent up to now is     2717.4 secs

     total energy              =  -31774.81789991 Ry
     Harris-Foulkes estimate   =  -31774.82673704 Ry
     estimated scf accuracy    <       1.07235144 Ry

     iteration #  8     ecut=    50.00 Ry     beta= 0.40
     Davidson diagonalization with overlap
     ethr =  3.82E-05,  avg # of iterations =  4.0

     negative rho (up, down):  5.116E+00 0.000E+00

     total cpu time spent up to now is     2951.5 secs

     total energy              =  -31774.35024255 Ry
     Harris-Foulkes estimate   =  -31774.82183156 Ry
     estimated scf accuracy    <       0.94892981 Ry

     iteration #  9     ecut=    50.00 Ry     beta= 0.40
     Davidson diagonalization with overlap
     ethr =  3.39E-05,  avg # of iterations = 19.0

     negative rho (up, down):  4.554E+00 0.000E+00

     total cpu time spent up to now is     3268.6 secs

     total energy              =  -31774.40563921 Ry
     Harris-Foulkes estimate   =  -31774.39777468 Ry
     estimated scf accuracy    <       0.41747688 Ry

     iteration # 10     ecut=    50.00 Ry     beta= 0.40
     Davidson diagonalization with overlap
     c_bands:  2 eigenvalues not converged
     ethr =  1.49E-05,  avg # of iterations = 20.0

     negative rho (up, down):  3.795E+00 0.000E+00

     total cpu time spent up to now is     3589.9 secs

     total energy              =  -31774.35723370 Ry
     Harris-Foulkes estimate   =  -31774.41727729 Ry
     estimated scf accuracy    <       0.32604490 Ry

     iteration # 11     ecut=    50.00 Ry     beta= 0.40
     Davidson diagonalization with overlap
     c_bands:  1 eigenvalues not converged
     ethr =  1.16E-05,  avg # of iterations = 40.0

     negative rho (up, down):  4.073E+00 0.000E+00

     total cpu time spent up to now is     4072.7 secs

     total energy              =  -31774.30826197 Ry
     Harris-Foulkes estimate   =  -31774.38684481 Ry
     estimated scf accuracy    <       0.25151850 Ry

     iteration # 12     ecut=    50.00 Ry     beta= 0.40
     Davidson diagonalization with overlap
     c_bands:  3 eigenvalues not converged
     ethr =  8.98E-06,  avg # of iterations = 40.0

     negative rho (up, down):  3.548E+00 0.000E+00

     total cpu time spent up to now is     4534.4 secs

     total energy              =  -31774.26322777 Ry
     Harris-Foulkes estimate   =  -31774.31585161 Ry
     estimated scf accuracy    <       0.17146896 Ry

     iteration # 13     ecut=    50.00 Ry     beta= 0.40
     Davidson diagonalization with overlap
     c_bands:  5 eigenvalues not converged
     ethr =  6.12E-06,  avg # of iterations = 20.0

     negative rho (up, down):  3.241E+00 0.000E+00

     total cpu time spent up to now is     4862.3 secs

     total energy              =  -31774.18582030 Ry
     Harris-Foulkes estimate   =  -31774.26439686 Ry
     estimated scf accuracy    <       0.13461162 Ry

     iteration # 14     ecut=    50.00 Ry     beta= 0.40
     Davidson diagonalization with overlap
     ethr =  4.81E-06,  avg # of iterations = 28.0

     negative rho (up, down):  2.727E+00 0.000E+00

     total cpu time spent up to now is     5456.8 secs

     total energy              =  -31774.15336485 Ry
     Harris-Foulkes estimate   =  -31774.20451326 Ry
     estimated scf accuracy    <       0.11369023 Ry

     iteration # 15     ecut=    50.00 Ry     beta= 0.40
     Davidson diagonalization with overlap
     c_bands:  1 eigenvalues not converged
     ethr =  4.06E-06,  avg # of iterations = 40.0

     negative rho (up, down):  2.252E+00 0.000E+00

     total cpu time spent up to now is     6047.2 secs

     total energy              =  -31774.17334572 Ry
     Harris-Foulkes estimate   =  -31774.18437263 Ry
     estimated scf accuracy    <       0.07717734 Ry

     iteration # 16     ecut=    50.00 Ry     beta= 0.40
     Davidson diagonalization with overlap
     c_bands:  5 eigenvalues not converged
     ethr =  2.76E-06,  avg # of iterations = 20.0

     negative rho (up, down):  1.692E+00 0.000E+00

     total cpu time spent up to now is     6587.7 secs

     total energy              =  -31774.06750801 Ry
     Harris-Foulkes estimate   =  -31774.26249971 Ry
     estimated scf accuracy    <       0.24066400 Ry

     iteration # 17     ecut=    50.00 Ry     beta= 0.40
     Davidson diagonalization with overlap
     ethr =  2.76E-06,  avg # of iterations = 23.0

     negative rho (up, down):  6.978E-01 0.000E+00

     total cpu time spent up to now is     7197.2 secs

     total energy              =  -31774.13467382 Ry
     Harris-Foulkes estimate   =  -31774.12326387 Ry
     estimated scf accuracy    <       0.01178311 Ry

     iteration # 18     ecut=    50.00 Ry     beta= 0.40
     Davidson diagonalization with overlap
     c_bands:  3 eigenvalues not converged
     ethr =  4.21E-07,  avg # of iterations = 20.0

     negative rho (up, down):  5.267E-01 0.000E+00

     total cpu time spent up to now is     7646.2 secs

     total energy              =  -31774.13508105 Ry
     Harris-Foulkes estimate   =  -31774.13801295 Ry
     estimated scf accuracy    <       0.00628914 Ry

     iteration # 19     ecut=    50.00 Ry     beta= 0.40
     Davidson diagonalization with overlap
     ethr =  2.25E-07,  avg # of iterations =  8.0

     negative rho (up, down):  1.941E-01 0.000E+00

     total cpu time spent up to now is     8070.7 secs

     total energy              =  -31774.13865633 Ry
     Harris-Foulkes estimate   =  -31774.13658798 Ry
     estimated scf accuracy    <       0.00190531 Ry

     iteration # 20     ecut=    50.00 Ry     beta= 0.40
     Davidson diagonalization with overlap
     ethr =  6.80E-08,  avg # of iterations = 31.0

     negative rho (up, down):  1.590E-01 0.000E+00

     total cpu time spent up to now is     8799.2 secs

     total energy              =  -31774.13864431 Ry
     Harris-Foulkes estimate   =  -31774.13919550 Ry
     estimated scf accuracy    <       0.00087563 Ry

     iteration # 21     ecut=    50.00 Ry     beta= 0.40
     Davidson diagonalization with overlap
     c_bands:  3 eigenvalues not converged
     ethr =  3.13E-08,  avg # of iterations = 20.0

     negative rho (up, down):  5.410E-02 0.000E+00

     total cpu time spent up to now is     9224.8 secs

     total energy              =  -31774.13871607 Ry
     Harris-Foulkes estimate   =  -31774.13879339 Ry
     estimated scf accuracy    <       0.00012294 Ry

     iteration # 22     ecut=    50.00 Ry     beta= 0.40
     Davidson diagonalization with overlap
     c_bands:  4 eigenvalues not converged
     ethr =  4.39E-09,  avg # of iterations = 20.0

     negative rho (up, down):  4.652E-02 0.000E+00

     total cpu time spent up to now is     9665.7 secs

     total energy              =  -31774.13874566 Ry
     Harris-Foulkes estimate   =  -31774.13873018 Ry
     estimated scf accuracy    <       0.00002048 Ry

     iteration # 23     ecut=    50.00 Ry     beta= 0.40
     Davidson diagonalization with overlap
     c_bands:  1 eigenvalues not converged
     ethr =  7.31E-10,  avg # of iterations = 20.0

     negative rho (up, down):  4.022E-02 0.000E+00

     total cpu time spent up to now is    10077.9 secs

     total energy              =  -31774.13875364 Ry
     Harris-Foulkes estimate   =  -31774.13874730 Ry
     estimated scf accuracy    <       0.00000821 Ry

     iteration # 24     ecut=    50.00 Ry     beta= 0.40
     Davidson diagonalization with overlap
     ethr =  2.93E-10,  avg # of iterations =  2.0

     negative rho (up, down):  3.971E-02 0.000E+00

     total cpu time spent up to now is    10371.0 secs

     total energy              =  -31774.13875108 Ry
     Harris-Foulkes estimate   =  -31774.13875449 Ry
     estimated scf accuracy    <       0.00000171 Ry

     iteration # 25     ecut=    50.00 Ry     beta= 0.40
     Davidson diagonalization with overlap
     ethr =  6.11E-11,  avg # of iterations =  2.0

     negative rho (up, down):  3.976E-02 0.000E+00

     total cpu time spent up to now is    10714.8 secs

     total energy              =  -31774.13874987 Ry
     Harris-Foulkes estimate   =  -31774.13875142 Ry
     estimated scf accuracy    <       0.00000093 Ry

     iteration # 26     ecut=    50.00 Ry     beta= 0.40
     Davidson diagonalization with overlap
     ethr =  3.33E-11,  avg # of iterations =  2.0

     negative rho (up, down):  3.983E-02 0.000E+00

     total cpu time spent up to now is    11138.6 secs

     total energy              =  -31774.13874985 Ry
     Harris-Foulkes estimate   =  -31774.13874995 Ry
     estimated scf accuracy    <       0.00000029 Ry

     iteration # 27     ecut=    50.00 Ry     beta= 0.40
     Davidson diagonalization with overlap
     ethr =  1.05E-11,  avg # of iterations =  2.0

     negative rho (up, down):  4.032E-02 0.000E+00

     total cpu time spent up to now is    11392.1 secs

     total energy              =  -31774.13874888 Ry
     Harris-Foulkes estimate   =  -31774.13874986 Ry
     estimated scf accuracy    <       0.00000016 Ry

     iteration # 28     ecut=    50.00 Ry     beta= 0.40
     Davidson diagonalization with overlap
     ethr =  5.84E-12,  avg # of iterations =  2.0

     negative rho (up, down):  4.031E-02 0.000E+00

     total cpu time spent up to now is    11879.4 secs

     total energy              =  -31774.13874879 Ry
     Harris-Foulkes estimate   =  -31774.13874891 Ry
     estimated scf accuracy    <       0.00000003 Ry

     iteration # 29     ecut=    50.00 Ry     beta= 0.40
     Davidson diagonalization with overlap
     ethr =  9.22E-13,  avg # of iterations =  3.0

     negative rho (up, down):  4.019E-02 0.000E+00

     total cpu time spent up to now is    12129.6 secs

     End of self-consistent calculation

          k = 0.0000 0.0000 0.0000 (****** PWs)   bands (ev):

   -25.1595 -25.1252 -25.0924 -25.0873 -25.0745 -25.0742 -25.0727 -25.0653
   -25.0553 -25.0543 -25.0516 -25.0474 -25.0412 -25.0401 -25.0310 -25.0276
   -25.0253 -25.0203 -25.0190 -25.0135 -25.0133 -25.0119 -25.0118 -25.0102
   -25.0083 -25.0075 -25.0064 -25.0037 -25.0036 -24.9992 -24.9979 -24.9976
   -24.9975 -24.9940 -24.9917 -24.9906 -24.9903 -24.9886 -24.9877 -24.9874
   -24.9858 -24.9851 -24.9844 -24.9835 -24.9816 -24.9795 -24.9778 -24.9773
   -24.9756 -24.9749 -24.9737 -24.9730 -24.9721 -24.9700 -24.9694 -24.9687
   -24.9682 -24.9677 -24.9665 -24.9659 -24.9645 -24.9609 -24.9600 -24.9595
   -24.9587 -24.9583 -24.9574 -24.9567 -24.9540 -24.9534 -24.9519 -24.9505
   -24.9493 -24.9489 -24.9475 -24.9462 -24.9450 -24.9441 -24.9438 -24.9436
   -24.9415 -24.9400 -24.9398 -24.9383 -24.9379 -24.9375 -24.9362 -24.9350
   -24.9345 -24.9341 -24.9337 -24.9323 -24.9319 -24.9313 -24.9307 -24.9289
   -24.9279 -24.9267 -24.9252 -24.9248 -24.9240 -24.9238 -24.9236 -24.9230
   -24.9215 -24.9204 -24.9202 -24.9194 -24.9191 -24.9166 -24.9150 -24.9138
   -24.9133 -24.9117 -24.9104 -24.9097 -24.9094 -24.9078 -24.9072 -24.9064
   -24.9058 -24.9048 -24.9042 -24.9035 -24.9033 -24.9026 -24.9021 -24.9016
   -24.9006 -24.8996 -24.8995 -24.8986 -24.8979 -24.8972 -24.8963 -24.8962
   -24.8952 -24.8945 -24.8943 -24.8942 -24.8937 -24.8935 -24.8926 -24.8920
   -24.8916 -24.8910 -24.8903 -24.8891 -24.8887 -24.8877 -24.8869 -24.8867
   -24.8859 -24.8854 -24.8833 -24.8827 -24.8819 -24.8813 -24.8809 -24.8802
   -24.8797 -24.8790 -24.8784 -24.8780 -24.8778 -24.8770 -24.8766 -24.8762
   -24.8752 -24.8747 -24.8738 -24.8734 -24.8720 -24.8715 -24.8713 -24.8710
   -24.8699 -24.8695 -24.8684 -24.8673 -24.8666 -24.8663 -24.8661 -24.8648
   -24.8646 -24.8645 -24.8636 -24.8628 -24.8619 -24.8612 -24.8601 -24.8592
   -24.8587 -24.8584 -24.8573 -24.8570 -24.8567 -24.8560 -24.8559 -24.8549
   -24.8544 -24.8537 -24.8518 -24.8516 -24.8512 -24.8509 -24.8505 -24.8502
   -24.8497 -24.8494 -24.8489 -24.8483 -24.8479 -24.8472 -24.8455 -24.8448
   -24.8442 -24.8438 -24.8430 -24.8427 -24.8418 -24.8413 -24.8399 -24.8398
   -24.8391 -24.8388 -24.8384 -24.8380 -24.8376 -24.8375 -24.8371 -24.8359
   -24.8358 -24.8356 -24.8350 -24.8348 -24.8343 -24.8341 -24.8333 -24.8327
   -24.8325 -24.8314 -24.8309 -24.8306 -24.8298 -24.8290 -24.8286 -24.8280
   -24.8276 -24.8274 -24.8266 -24.8262 -24.8259 -24.8252 -24.8244 -24.8242
   -24.8227 -24.8222 -24.8218 -24.8207 -24.8200 -24.8194 -24.8185 -24.8174
   -24.8166 -24.8158 -24.8158 -24.8153 -24.8136 -24.8133 -24.8128 -24.8126
   -24.8121 -24.8115 -24.8109 -24.8100 -24.8085 -24.8079 -24.8076 -24.8072
   -24.8062 -24.8057 -24.8054 -24.8048 -24.8040 -24.8038 -24.8027 -24.8022
   -24.8016 -24.8012 -24.8006 -24.7998 -24.7997 -24.7991 -24.7990 -24.7985
   -24.7980 -24.7971 -24.7966 -24.7963 -24.7959 -24.7957 -24.7944 -24.7930
   -24.7922 -24.7919 -24.7912 -24.7905 -24.7891 -24.7883 -24.7878 -24.7876
   -24.7867 -24.7856 -24.7853 -24.7845 -24.7838 -24.7836 -24.7820 -24.7815
   -24.7809 -24.7807 -24.7803 -24.7790 -24.7783 -24.7781 -24.7774 -24.7769
   -24.7765 -24.7760 -24.7757 -24.7750 -24.7748 -24.7742 -24.7741 -24.7729
   -24.7727 -24.7724 -24.7714 -24.7708 -24.7703 -24.7702 -24.7691 -24.7678
   -24.7674 -24.7665 -24.7664 -24.7651 -24.7648 -24.7635 -24.7633 -24.7624
   -24.7619 -24.7612 -24.7608 -24.7603 -24.7599 -24.7589 -24.7584 -24.7579
   -24.7570 -24.7568 -24.7561 -24.7554 -24.7547 -24.7543 -24.7541 -24.7539
   -24.7524 -24.7518 -24.7514 -24.7511 -24.7506 -24.7497 -24.7495 -24.7492
   -24.7484 -24.7478 -24.7477 -24.7463 -24.7459 -24.7456 -24.7455 -24.7444
   -24.7438 -24.7432 -24.7416 -24.7415 -24.7411 -24.7403 -24.7397 -24.7395
   -24.7388 -24.7385 -24.7375 -24.7364 -24.7359 -24.7354 -24.7344 -24.7337
   -24.7333 -24.7330 -24.7324 -24.7318 -24.7307 -24.7306 -24.7302 -24.7291
   -24.7279 -24.7270 -24.7267 -24.7265 -24.7257 -24.7252 -24.7238 -24.7233
   -24.7229 -24.7220 -24.7212 -24.7206 -24.7203 -24.7199 -24.7192 -24.7180
   -24.7176 -24.7175 -24.7171 -24.7162 -24.7160 -24.7150 -24.7146 -24.7145
   -24.7136 -24.7128 -24.7124 -24.7119 -24.7115 -24.7108 -24.7104 -24.7096
   -24.7093 -24.7084 -24.7079 -24.7070 -24.7069 -24.7069 -24.7061 -24.7048
   -24.7039 -24.7035 -24.7031 -24.7028 -24.7022 -24.7018 -24.7009 -24.7004
   -24.7000 -24.6992 -24.6987 -24.6983 -24.6978 -24.6970 -24.6964 -24.6957
   -24.6954 -24.6948 -24.6943 -24.6939 -24.6927 -24.6920 -24.6917 -24.6912
   -24.6905 -24.6901 -24.6893 -24.6887 -24.6884 -24.6871 -24.6865 -24.6857
   -24.6855 -24.6846 -24.6840 -24.6833 -24.6825 -24.6823 -24.6817 -24.6811
   -24.6807 -24.6796 -24.6794 -24.6793 -24.6788 -24.6781 -24.6770 -24.6766
   -24.6764 -24.6757 -24.6752 -24.6746 -24.6743 -24.6734 -24.6726 -24.6720
   -24.6709 -24.6707 -24.6705 -24.6697 -24.6687 -24.6682 -24.6677 -24.6670
   -24.6661 -24.6659 -24.6649 -24.6643 -24.6637 -24.6634 -24.6627 -24.6618
   -24.6615 -24.6608 -24.6604 -24.6600 -24.6592 -24.6591 -24.6584 -24.6578
   -24.6573 -24.6572 -24.6565 -24.6559 -24.6556 -24.6549 -24.6540 -24.6538
   -24.6534 -24.6523 -24.6519 -24.6514 -24.6512 -24.6504 -24.6501 -24.6498
   -24.6491 -24.6486 -24.6479 -24.6476 -24.6470 -24.6468 -24.6467 -24.6459
   -24.6451 -24.6443 -24.6439 -24.6433 -24.6423 -24.6422 -24.6416 -24.6411
   -24.6410 -24.6402 -24.6398 -24.6393 -24.6391 -24.6382 -24.6376 -24.6369
   -24.6366 -24.6360 -24.6357 -24.6347 -24.6341 -24.6334 -24.6328 -24.6326
   -24.6322 -24.6310 -24.6308 -24.6302 -24.6298 -24.6296 -24.6290 -24.6284
   -24.6279 -24.6274 -24.6268 -24.6263 -24.6262 -24.6248 -24.6245 -24.6242
   -24.6237 -24.6231 -24.6229 -24.6223 -24.6215 -24.6211 -24.6205 -24.6204
   -24.6193 -24.6185 -24.6180 -24.6174 -24.6167 -24.6166 -24.6157 -24.6149
   -24.6144 -24.6139 -24.6135 -24.6131 -24.6127 -24.6120 -24.6111 -24.6108
   -24.6105 -24.6102 -24.6096 -24.6090 -24.6088 -24.6080 -24.6070 -24.6067
   -24.6063 -24.6057 -24.6048 -24.6047 -24.6045 -24.6040 -24.6035 -24.6025
   -24.6020 -24.6008 -24.6005 -24.6002 -24.5996 -24.5989 -24.5988 -24.5980
   -24.5976 -24.5965 -24.5959 -24.5953 -24.5948 -24.5945 -24.5942 -24.5940
   -24.5932 -24.5928 -24.5922 -24.5918 -24.5912 -24.5908 -24.5900 -24.5899
   -24.5897 -24.5894 -24.5893 -24.5886 -24.5885 -24.5880 -24.5879 -24.5864
   -24.5863 -24.5857 -24.5854 -24.5848 -24.5845 -24.5842 -24.5837 -24.5831
   -24.5826 -24.5823 -24.5818 -24.5815 -24.5811 -24.5807 -24.5797 -24.5793
   -24.5788 -24.5784 -24.5777 -24.5769 -24.5767 -24.5765 -24.5757 -24.5755
   -24.5747 -24.5740 -24.5739 -24.5731 -24.5725 -24.5723 -24.5719 -24.5709
   -24.5708 -24.5705 -24.5701 -24.5696 -24.5690 -24.5684 -24.5680 -24.5677
   -24.5674 -24.5669 -24.5664 -24.5655 -24.5652 -24.5647 -24.5641 -24.5636
   -24.5632 -24.5630 -24.5618 -24.5615 -24.5611 -24.5604 -24.5602 -24.5599
   -24.5586 -24.5585 -24.5578 -24.5575 -24.5570 -24.5564 -24.5554 -24.5551
   -24.5546 -24.5537 -24.5531 -24.5527 -24.5520 -24.5514 -24.5512 -24.5509
   -24.5502 -24.5499 -24.5490 -24.5486 -24.5475 -24.5467 -24.5462 -24.5459
   -24.5453 -24.5450 -24.5445 -24.5441 -24.5438 -24.5436 -24.5434 -24.5426
   -24.5415 -24.5411 -24.5410 -24.5404 -24.5401 -24.5398 -24.5386 -24.5384
   -24.5375 -24.5367 -24.5363 -24.5357 -24.5353 -24.5343 -24.5341 -24.5336
   -24.5334 -24.5330 -24.5325 -24.5316 -24.5312 -24.5311 -24.5302 -24.5294
   -24.5292 -24.5287 -24.5278 -24.5275 -24.5272 -24.5263 -24.5262 -24.5250
   -24.5248 -24.5242 -24.5234 -24.5230 -24.5223 -24.5217 -24.5213 -24.5203
   -24.5201 -24.5194 -24.5192 -24.5190 -24.5178 -24.5173 -24.5170 -24.5166
   -24.5162 -24.5160 -24.5150 -24.5141 -24.5138 -24.5130 -24.5128 -24.5117
   -24.5105 -24.5102 -24.5090 -24.5088 -24.5083 -24.5078 -24.5075 -24.5065
   -24.5060 -24.5047 -24.5043 -24.5034 -24.5031 -24.5025 -24.5021 -24.5011
   -24.5002 -24.4994 -24.4985 -24.4978 -24.4976 -24.4971 -24.4966 -24.4959
   -24.4954 -24.4944 -24.4939 -24.4935 -24.4929 -24.4925 -24.4909 -24.4904
   -24.4900 -24.4893 -24.4886 -24.4883 -24.4881 -24.4871 -24.4859 -24.4846
   -24.4841 -24.4828 -24.4824 -24.4820 -24.4815 -24.4806 -24.4798 -24.4795
   -24.4788 -24.4786 -24.4770 -24.4765 -24.4762 -24.4759 -24.4746 -24.4742
   -24.4737 -24.4730 -24.4717 -24.4714 -24.4708 -24.4697 -24.4695 -24.4678
   -24.4668 -24.4665 -24.4656 -24.4633 -24.4628 -24.4621 -24.4612 -24.4608
   -24.4600 -24.4584 -24.4580 -24.4573 -24.4556 -24.4551 -24.4543 -24.4541
   -24.4530 -24.4525 -24.4517 -24.4512 -24.4504 -24.4499 -24.4494 -24.4489
   -24.4478 -24.4468 -24.4455 -24.4452 -24.4444 -24.4428 -24.4423 -24.4408
   -24.4400 -24.4396 -24.4388 -24.4372 -24.4363 -24.4357 -24.4353 -24.4352
   -24.4328 -24.4322 -24.4302 -24.4291 -24.4278 -24.4265 -24.4256 -24.4245
   -24.4243 -24.4238 -24.4228 -24.4221 -24.4214 -24.4210 -24.4198 -24.4183
   -24.4180 -24.4174 -24.4163 -24.4147 -24.4137 -24.4132 -24.4123 -24.4110
   -24.4105 -24.4090 -24.4081 -24.4076 -24.4071 -24.4061 -24.4033 -24.4024
   -24.4014 -24.3986 -24.3977 -24.3971 -24.3968 -24.3952 -24.3936 -24.3924
   -24.3911 -24.3904 -24.3881 -24.3871 -24.3849 -24.3845 -24.3837 -24.3827
   -24.3806 -24.3782 -24.3771 -24.3766 -24.3761 -24.3755 -24.3741 -24.3732
   -24.3708 -24.3698 -24.3682 -24.3670 -24.3642 -24.3628 -24.3623 -24.3612
   -24.3610 -24.3609 -24.3591 -24.3578 -24.3555 -24.3550 -24.3527 -24.3515
   -24.3507 -24.3492 -24.3477 -24.3454 -24.3444 -24.3424 -24.3419 -24.3370
   -24.3318 -24.3313 -24.3267 -24.3264 -24.3223 -24.3119 -24.3109 -24.2820
   -13.0153 -12.9589 -12.9326 -12.9005 -12.8967 -12.8644 -12.8594 -12.8228
   -12.8076 -12.7579 -12.7122 -12.6925 -12.6705 -12.6627 -12.6403 -12.6346
   -12.5984 -12.5779 -12.5655 -12.5455 -12.5267 -12.4407 -12.4166 -12.4002
   -12.3818 -12.3668 -12.3567 -12.3413 -12.3142 -12.2908 -12.2639 -12.2310
   -12.1887 -12.1761 -12.1607 -12.1519 -12.1246 -12.0741 -12.0642 -12.0527
   -12.0397 -12.0175 -11.9766 -11.9610 -11.9500 -11.9250 -11.9119 -11.9019
   -11.8726 -11.8492 -11.8083 -11.7476 -11.7244 -11.7199 -11.6929 -11.6852
   -11.6688 -11.6622 -11.6465 -11.6388 -11.6151 -11.6114 -11.5925 -11.5747
   -11.5420 -11.5087 -11.5024 -11.4708 -11.4650 -11.4347 -11.4116 -11.3981
   -11.3872 -11.3838 -11.3674 -11.3580 -11.3564 -11.3410 -11.3196 -11.3137
   -11.2897 -11.2788 -11.2622 -11.2549 -11.2454 -11.2235 -11.1559 -11.1362
   -11.1239 -11.1135 -11.0841 -11.0175 -11.0136 -10.9925 -10.9881 -10.9825
   -10.8407 -10.8315 -10.6869 -10.6643 -10.3595 -10.3434 -10.2040 -10.1606
   -10.0694 -10.0502 -10.0431 -10.0320 -10.0110  -9.9700  -9.9079  -9.8980
    -9.8790  -9.8583  -9.8371  -9.8246  -9.8059  -9.7774  -9.7687  -9.7549
    -9.7381  -9.7233  -9.7015  -9.6941  -9.6753  -9.6575  -9.6352  -9.6088
    -9.6005  -9.5608  -9.5535  -9.5441  -9.5025  -9.4923  -9.4530  -9.3946
    -9.3718  -9.3590  -9.3476  -9.3136  -9.3110  -9.2944  -9.2856  -9.2656
    -9.2310  -9.2272  -9.2079  -9.1980  -9.1866  -8.9561  -8.9473  -8.9277
    -8.9182  -8.7964  -8.7755  -8.7626  -8.7433  -8.7270  -8.7077  -8.6609
    -8.6398  -8.6223  -8.6082  -8.4832  -8.4622  -8.4405  -8.3784  -8.3609
    -8.3207  -8.1944  -8.1672  -8.1355  -8.1152  -8.0432  -7.9798  -7.9636
    -7.9348  -7.9278  -7.8975  -7.5900  -7.5489  -7.5158  -7.4972  -7.4532
    -7.4237  -7.3865  -7.3424  -7.3078  -7.2979  -7.2183  -7.0655  -6.9246
    -6.9035  -6.8600  -6.8552  -6.7796  -6.7238  -6.6647  -6.6515  -6.5027
    -6.4221  -6.4121  -6.3565  -6.3140  -6.2697  -6.2498  -6.1946  -6.1721
    -6.1651  -6.1330  -6.1145  -6.1036  -6.0870  -6.0705  -6.0398  -6.0164
    -6.0013  -5.9761  -5.9545  -5.9204  -5.8676  -5.8002  -5.7832  -5.7479
    -5.7147  -5.7101  -5.6919  -5.6403  -5.6390  -5.6264  -5.5979  -5.5926
    -5.5824  -5.5663  -5.5517  -5.5350  -5.5299  -5.5120  -5.4958  -5.4930
    -5.4630  -5.4457  -5.4375  -5.4250  -5.3607  -5.3509  -5.3365  -5.3227
    -5.3125  -5.2831  -5.2743  -5.2562  -5.2526  -5.2349  -5.2237  -5.2045
    -5.1940  -5.1864  -5.1816  -5.1724  -5.1667  -5.1478  -5.1452  -5.1309
    -5.1246  -5.1206  -5.1153  -5.1078  -5.1011  -5.0822  -5.0734  -5.0647
    -5.0572  -5.0547  -5.0442  -5.0322  -5.0249  -5.0215  -5.0142  -5.0126
    -5.0122  -4.9953  -4.9892  -4.9845  -4.9680  -4.9646  -4.9567  -4.9523
    -4.9458  -4.9418  -4.9315  -4.9290  -4.9231  -4.9065  -4.9019  -4.8805
    -4.8749  -4.8667  -4.8625  -4.8550  -4.8478  -4.8384  -4.8301  -4.8218
    -4.8032  -4.7982  -4.7921  -4.7861  -4.7669  -4.7649  -4.7550  -4.7450
    -4.7403  -4.7316  -4.7172  -4.7076  -4.7041  -4.6929  -4.6841  -4.6790
    -4.6633  -4.6593  -4.6500  -4.6441  -4.6257  -4.6154  -4.6052  -4.5975
    -4.5887  -4.5749  -4.5691  -4.5629  -4.5399  -4.5283  -4.5160  -4.5056
    -4.5007  -4.4894  -4.4804  -4.4750  -4.4644  -4.4586  -4.4403  -4.4270
    -4.4193  -4.4153  -4.3870  -4.3821  -4.3771  -4.3635  -4.3520  -4.3299
    -4.3183  -4.3106  -4.2982  -4.2853  -4.2698  -4.2652  -4.2582  -4.2277
    -4.2158  -4.2051  -4.2006  -4.1917  -4.1731  -4.1630  -4.1503  -4.1360
    -4.1245  -4.1185  -4.1082  -4.0961  -4.0887  -4.0764  -4.0676  -4.0603
    -4.0256  -4.0181  -3.9915  -3.9763  -3.9529  -3.9474  -3.9256  -3.9101
    -3.9020  -3.8789  -3.8655  -3.8643  -3.8356  -3.8236  -3.8076  -3.7810
    -3.7390  -3.7280  -3.7126  -3.6889  -3.6643  -3.6286  -3.5817  -3.5627
    -3.5234  -3.3824  -3.3378  -3.3103  -3.2986  -3.2318  -3.1861  -3.1781
    -3.1412  -3.1217  -3.1174  -3.0873  -3.0801  -3.0601  -3.0325  -3.0100
    -3.0059  -2.9980  -2.9841  -2.9466  -2.9320  -2.9288  -2.9214  -2.8933
    -2.8814  -2.8735  -2.8643  -2.8612  -2.8430  -2.8195  -2.8101  -2.8038
    -2.7833  -2.7704  -2.7626  -2.7497  -2.7326  -2.7133  -2.7035  -2.6940
    -2.6663  -2.6549  -2.6317  -2.6237  -2.6010  -2.5948  -2.5744  -2.5678
    -2.5439  -2.5364  -2.5273  -2.5005  -2.4852  -2.4701  -2.4486  -2.4334
    -2.4190  -2.4122  -2.3783  -2.3604  -2.3534  -2.3310  -2.3137  -2.2921
    -2.2739  -2.2732  -2.2499  -2.2457  -2.2308  -2.2129  -2.1960  -2.1811
    -2.1681  -2.1527  -2.1375  -2.1263  -2.1162  -2.1112  -2.0873  -2.0804
    -2.0652  -2.0470  -2.0421  -2.0253  -2.0148  -1.9964  -1.9937  -1.9757
    -1.9672  -1.9519  -1.9364  -1.9172  -1.8943  -1.8915  -1.8796  -1.8689
    -1.8633  -1.8461  -1.8255  -1.8169  -1.7912  -1.7843  -1.7783  -1.7615
    -1.7541  -1.7339  -1.7279  -1.7208  -1.6989  -1.6791  -1.6571  -1.6547
    -1.6420  -1.6317  -1.6237  -1.6069  -1.5937  -1.5808  -1.5577  -1.5537
    -1.5482  -1.5213  -1.5135  -1.5056  -1.4932  -1.4837  -1.4776  -1.4644
    -1.4574  -1.4541  -1.4332  -1.4203  -1.4042  -1.3929  -1.3841  -1.3681
    -1.3586  -1.3467  -1.3385  -1.3331  -1.3238  -1.3161  -1.2962  -1.2873
    -1.2800  -1.2639  -1.2430  -1.2368  -1.2217  -1.1911  -1.1809  -1.1671
    -1.1600  -1.1292  -1.1207  -1.1161  -1.1033  -1.0801  -1.0653  -1.0352
    -1.0259  -1.0011  -0.9784  -0.9640  -0.9579  -0.9143  -0.8884  -0.8524
    -0.8407  -0.8356  -0.8112  -0.7783  -0.7392  -0.6847  -0.6323  -0.5984
    -0.5855  -0.5516  -0.5344  -0.5124  -0.4933  -0.4859  -0.4578  -0.4481
    -0.4385  -0.4369  -0.4228  -0.4055  -0.3969  -0.3871  -0.3725  -0.3425
    -0.3393  -0.3342  -0.3150  -0.3013  -0.2953  -0.2900  -0.2682  -0.2576
    -0.2510  -0.2389  -0.2269  -0.1950  -0.1776  -0.1674  -0.1505  -0.1404
    -0.0961  -0.0761  -0.0538  -0.0462  -0.0374  -0.0333  -0.0203   0.0038
     0.0106   0.0216   0.0312   0.0560   0.0658   0.0750   0.0949   0.1040
     0.1155   0.1261   0.1511   0.1677   0.1814   0.1833   0.1957   0.2018
     0.2145   0.2320   0.2377   0.2576   0.2750   0.2956   0.3088   0.3242
     0.3316   0.3414   0.3482   0.3703   0.3774   0.3894   0.3999   0.4169
     0.4308   0.4371   0.4439   0.4505   0.4597   0.4609   0.4688   0.4933
     0.4977   0.5129   0.5150   0.5249   0.5277   0.5369   0.5376   0.5524
     0.5588   0.5635   0.5670   0.5715   0.5754   0.5829   0.5881   0.5908
     0.5990   0.6032   0.6148   0.6171   0.6243   0.6314   0.6380   0.6435

     occupation numbers 
     1.0000   1.0000   1.0000   1.0000   1.0000   1.0000   1.0000   1.0000
     1.0000   1.0000   1.0000   1.0000   1.0000   1.0000   1.0000   1.0000
     1.0000   1.0000   1.0000   1.0000   1.0000   1.0000   1.0000   1.0000
     1.0000   1.0000   1.0000   1.0000   1.0000   1.0000   1.0000   1.0000
     1.0000   1.0000   1.0000   1.0000   1.0000   1.0000   1.0000   1.0000
     1.0000   1.0000   1.0000   1.0000   1.0000   1.0000   1.0000   1.0000
     1.0000   1.0000   1.0000   1.0000   1.0000   1.0000   1.0000   1.0000
     1.0000   1.0000   1.0000   1.0000   1.0000   1.0000   1.0000   1.0000
     1.0000   1.0000   1.0000   1.0000   1.0000   1.0000   1.0000   1.0000
     1.0000   1.0000   1.0000   1.0000   1.0000   1.0000   1.0000   1.0000
     1.0000   1.0000   1.0000   1.0000   1.0000   1.0000   1.0000   1.0000
     1.0000   1.0000   1.0000   1.0000   1.0000   1.0000   1.0000   1.0000
     1.0000   1.0000   1.0000   1.0000   1.0000   1.0000   1.0000   1.0000
     1.0000   1.0000   1.0000   1.0000   1.0000   1.0000   1.0000   1.0000
     1.0000   1.0000   1.0000   1.0000   1.0000   1.0000   1.0000   1.0000
     1.0000   1.0000   1.0000   1.0000   1.0000   1.0000   1.0000   1.0000
     1.0000   1.0000   1.0000   1.0000   1.0000   1.0000   1.0000   1.0000
     1.0000   1.0000   1.0000   1.0000   1.0000   1.0000   1.0000   1.0000
     1.0000   1.0000   1.0000   1.0000   1.0000   1.0000   1.0000   1.0000
     1.0000   1.0000   1.0000   1.0000   1.0000   1.0000   1.0000   1.0000
     1.0000   1.0000   1.0000   1.0000   1.0000   1.0000   1.0000   1.0000
     1.0000   1.0000   1.0000   1.0000   1.0000   1.0000   1.0000   1.0000
     1.0000   1.0000   1.0000   1.0000   1.0000   1.0000   1.0000   1.0000
     1.0000   1.0000   1.0000   1.0000   1.0000   1.0000   1.0000   1.0000
     1.0000   1.0000   1.0000   1.0000   1.0000   1.0000   1.0000   1.0000
     1.0000   1.0000   1.0000   1.0000   1.0000   1.0000   1.0000   1.0000
     1.0000   1.0000   1.0000   1.0000   1.0000   1.0000   1.0000   1.0000
     1.0000   1.0000   1.0000   1.0000   1.0000   1.0000   1.0000   1.0000
     1.0000   1.0000   1.0000   1.0000   1.0000   1.0000   1.0000   1.0000
     1.0000   1.0000   1.0000   1.0000   1.0000   1.0000   1.0000   1.0000
     1.0000   1.0000   1.0000   1.0000   1.0000   1.0000   1.0000   1.0000
     1.0000   1.0000   1.0000   1.0000   1.0000   1.0000   1.0000   1.0000
     1.0000   1.0000   1.0000   1.0000   1.0000   1.0000   1.0000   1.0000
     1.0000   1.0000   1.0000   1.0000   1.0000   1.0000   1.0000   1.0000
     1.0000   1.0000   1.0000   1.0000   1.0000   1.0000   1.0000   1.0000
     1.0000   1.0000   1.0000   1.0000   1.0000   1.0000   1.0000   1.0000
     1.0000   1.0000   1.0000   1.0000   1.0000   1.0000   1.0000   1.0000
     1.0000   1.0000   1.0000   1.0000   1.0000   1.0000   1.0000   1.0000
     1.0000   1.0000   1.0000   1.0000   1.0000   1.0000   1.0000   1.0000
     1.0000   1.0000   1.0000   1.0000   1.0000   1.0000   1.0000   1.0000
     1.0000   1.0000   1.0000   1.0000   1.0000   1.0000   1.0000   1.0000
     1.0000   1.0000   1.0000   1.0000   1.0000   1.0000   1.0000   1.0000
     1.0000   1.0000   1.0000   1.0000   1.0000   1.0000   1.0000   1.0000
     1.0000   1.0000   1.0000   1.0000   1.0000   1.0000   1.0000   1.0000
     1.0000   1.0000   1.0000   1.0000   1.0000   1.0000   1.0000   1.0000
     1.0000   1.0000   1.0000   1.0000   1.0000   1.0000   1.0000   1.0000
     1.0000   1.0000   1.0000   1.0000   1.0000   1.0000   1.0000   1.0000
     1.0000   1.0000   1.0000   1.0000   1.0000   1.0000   1.0000   1.0000
     1.0000   1.0000   1.0000   1.0000   1.0000   1.0000   1.0000   1.0000
     1.0000   1.0000   1.0000   1.0000   1.0000   1.0000   1.0000   1.0000
     1.0000   1.0000   1.0000   1.0000   1.0000   1.0000   1.0000   1.0000
     1.0000   1.0000   1.0000   1.0000   1.0000   1.0000   1.0000   1.0000
     1.0000   1.0000   1.0000   1.0000   1.0000   1.0000   1.0000   1.0000
     1.0000   1.0000   1.0000   1.0000   1.0000   1.0000   1.0000   1.0000
     1.0000   1.0000   1.0000   1.0000   1.0000   1.0000   1.0000   1.0000
     1.0000   1.0000   1.0000   1.0000   1.0000   1.0000   1.0000   1.0000
     1.0000   1.0000   1.0000   1.0000   1.0000   1.0000   1.0000   1.0000
     1.0000   1.0000   1.0000   1.0000   1.0000   1.0000   1.0000   1.0000
     1.0000   1.0000   1.0000   1.0000   1.0000   1.0000   1.0000   1.0000
     1.0000   1.0000   1.0000   1.0000   1.0000   1.0000   1.0000   1.0000
     1.0000   1.0000   1.0000   1.0000   1.0000   1.0000   1.0000   1.0000
     1.0000   1.0000   1.0000   1.0000   1.0000   1.0000   1.0000   1.0000
     1.0000   1.0000   1.0000   1.0000   1.0000   1.0000   1.0000   1.0000
     1.0000   1.0000   1.0000   1.0000   1.0000   1.0000   1.0000   1.0000
     1.0000   1.0000   1.0000   1.0000   1.0000   1.0000   1.0000   1.0000
     1.0000   1.0000   1.0000   1.0000   1.0000   1.0000   1.0000   1.0000
     1.0000   1.0000   1.0000   1.0000   1.0000   1.0000   1.0000   1.0000
     1.0000   1.0000   1.0000   1.0000   1.0000   1.0000   1.0000   1.0000
     1.0000   1.0000   1.0000   1.0000   1.0000   1.0000   1.0000   1.0000
     1.0000   1.0000   1.0000   1.0000   1.0000   1.0000   1.0000   1.0000
     1.0000   1.0000   1.0000   1.0000   1.0000   1.0000   1.0000   1.0000
     1.0000   1.0000   1.0000   1.0000   1.0000   1.0000   1.0000   1.0000
     1.0000   1.0000   1.0000   1.0000   1.0000   1.0000   1.0000   1.0000
     1.0000   1.0000   1.0000   1.0000   1.0000   1.0000   1.0000   1.0000
     1.0000   1.0000   1.0000   1.0000   1.0000   1.0000   1.0000   1.0000
     1.0000   1.0000   1.0000   1.0000   1.0000   1.0000   1.0000   1.0000
     1.0000   1.0000   1.0000   1.0000   1.0000   1.0000   1.0000   1.0000
     1.0000   1.0000   1.0000   1.0000   1.0000   1.0000   1.0000   1.0000
     1.0000   1.0000   1.0000   1.0000   1.0000   1.0000   1.0000   1.0000
     1.0000   1.0000   1.0000   1.0000   1.0000   1.0000   1.0000   1.0000
     1.0000   1.0000   1.0000   1.0000   1.0000   1.0000   1.0000   1.0000
     1.0000   1.0000   1.0000   1.0000   1.0000   1.0000   1.0000   1.0000
     1.0000   1.0000   1.0000   1.0000   1.0000   1.0000   1.0000   1.0000
     1.0000   1.0000   1.0000   1.0000   1.0000   1.0000   1.0000   1.0000
     1.0000   1.0000   1.0000   1.0000   1.0000   1.0000   1.0000   1.0000
     1.0000   1.0000   1.0000   1.0000   1.0000   1.0000   1.0000   1.0000
     1.0000   1.0000   1.0000   1.0000   1.0000   1.0000   1.0000   1.0000
     1.0000   1.0000   1.0000   1.0000   1.0000   1.0000   1.0000   1.0000
     1.0000   1.0000   1.0000   1.0000   1.0000   1.0000   1.0000   1.0000
     1.0000   1.0000   1.0000   1.0000   1.0000   1.0000   1.0000   1.0000
     1.0000   1.0000   1.0000   1.0000   1.0000   1.0000   1.0000   1.0000
     1.0000   1.0000   1.0000   1.0000   1.0000   1.0000   1.0000   1.0000
     1.0000   1.0000   1.0000   1.0000   1.0000   1.0000   1.0000   1.0000
     1.0000   1.0000   1.0000   1.0000   1.0000   1.0000   1.0000   1.0000
     1.0000   1.0000   1.0000   1.0000   1.0000   1.0000   1.0000   1.0000
     1.0000   1.0000   1.0000   1.0000   1.0000   1.0000   1.0000   1.0000
     1.0000   1.0000   1.0000   1.0000   1.0000   1.0000   1.0000   1.0000
     1.0000   1.0000   1.0000   1.0000   1.0000   1.0000   1.0000   1.0000
     1.0000   1.0000   1.0000   1.0000   1.0000   1.0000   1.0000   1.0000
     1.0000   1.0000   1.0000   1.0000   1.0000   1.0000   1.0000   1.0000
     1.0000   1.0000   1.0000   1.0000   1.0000   1.0000   1.0000   1.0000
     1.0000   1.0000   1.0000   1.0000   1.0000   1.0000   1.0000   1.0000
     1.0000   1.0000   1.0000   1.0000   1.0000   1.0000   1.0000   1.0000
     1.0000   1.0000   1.0000   1.0000   1.0000   1.0000   1.0000   1.0000
     1.0000   1.0000   1.0000   1.0000   1.0000   1.0000   1.0000   1.0000
     1.0000   1.0000   1.0000   1.0000   1.0000   1.0000   1.0000   1.0000
     1.0000   1.0000   1.0000   1.0000   1.0000   1.0000   1.0000   1.0000
     1.0000   1.0000   1.0000   1.0000   1.0000   1.0000   1.0000   1.0000
     1.0000   1.0000   1.0000   1.0000   1.0000   1.0000   1.0000   1.0000
     1.0000   1.0000   1.0000   1.0000   1.0000   1.0000   1.0000   1.0000
     1.0000   1.0000   1.0000   1.0000   1.0000   1.0000   1.0000   1.0000
     1.0000   1.0000   1.0000   1.0000   1.0000   1.0000   1.0000   1.0000
     1.0000   1.0000   1.0000   1.0000   1.0000   1.0000   1.0000   1.0000
     1.0000   1.0000   1.0000   1.0000   1.0000   1.0000   1.0000   1.0000
     1.0000   1.0000   1.0000   1.0000   1.0000   1.0000   1.0000   1.0000
     1.0000   1.0000   1.0000   1.0000   1.0000   1.0000   1.0000   1.0000
     1.0000   1.0000   1.0000   1.0000   1.0000   1.0000   1.0000   1.0000
     1.0000   1.0000   1.0000   1.0000   1.0000   1.0000   1.0000   1.0000
     1.0000   1.0000   1.0000   1.0000   1.0000   1.0000   1.0000   1.0000
     1.0000   1.0000   1.0000   1.0000   1.0000   1.0000   1.0000   1.0000
     1.0000   1.0000   1.0000   1.0000   1.0000   1.0000   1.0000   1.0000
     1.0000   1.0000   1.0000   1.0000   1.0000   1.0000   1.0000   1.0000
     1.0000   1.0000   1.0000   1.0000   1.0000   1.0000   1.0000   1.0000
     1.0000   1.0000   1.0000   1.0000   1.0000   1.0000   1.0000   1.0000
     1.0000   1.0000   1.0000   1.0000   1.0000   1.0000   1.0000   1.0000
     1.0000   1.0000   1.0000   1.0000   1.0000   1.0000   1.0000   1.0000
     1.0000   1.0000   1.0000   1.0000   1.0000   1.0000   1.0000   1.0000
     1.0000   1.0000   1.0000   1.0000   1.0000   1.0000   1.0000   1.0000
     1.0000   1.0000   1.0000   1.0000   1.0000   1.0000   1.0000   1.0000
     1.0000   1.0000   1.0000   1.0000   1.0000   1.0000   1.0000   1.0000
     1.0000   1.0000   1.0000   1.0000   1.0000   1.0000   1.0000   1.0000
     1.0000   1.0000   1.0000   1.0000   1.0000   1.0000   1.0000   1.0000
     1.0000   1.0000   1.0000   1.0000   1.0000   1.0000   1.0000   1.0000
     1.0000   1.0000   1.0000   1.0000   1.0000   1.0000   1.0000   1.0000
     1.0000   1.0000   1.0000   1.0000   1.0000   1.0000   1.0000   1.0000
     1.0000   1.0000   1.0000   1.0000   1.0000   1.0000   1.0000   1.0000
     1.0000   1.0000   1.0000   1.0000   1.0000   1.0000   1.0000   1.0000
     1.0000   1.0000   1.0000   1.0000   1.0000   1.0000   1.0000   1.0000
     1.0000   1.0000   1.0000   1.0000   1.0000   1.0000   1.0000   1.0000
     1.0000   1.0000   1.0000   1.0000   1.0000   1.0000   1.0000   1.0000
     1.0000   1.0000   1.0000   1.0000   1.0000   1.0000   1.0000   1.0000
     1.0000   1.0000   1.0000   1.0000   1.0000   1.0000   1.0000   1.0000
     1.0000   1.0000   1.0000   1.0000   1.0000   1.0000   1.0000   1.0000
     1.0000   1.0000   1.0000   1.0000   1.0000   1.0000   1.0000   1.0000
     1.0000   1.0000   1.0000   1.0000   1.0000   1.0000   1.0000   1.0000
     1.0000   1.0000   1.0000   1.0000   1.0000   1.0000   1.0000   1.0000
     1.0000   1.0000   1.0000   1.0000   1.0000   1.0000   1.0000   1.0000
     1.0000   1.0000   1.0000   1.0000   1.0000   1.0000   1.0000   1.0000
     1.0000   1.0000   1.0000   1.0000   1.0000   1.0000   1.0000   1.0000
     1.0000   1.0000   1.0000   1.0000   1.0000   1.0000   1.0000   1.0000
     1.0000   1.0000   1.0000   1.0000   1.0000   1.0000   1.0000   1.0000
     1.0000   1.0000   1.0000   1.0000   1.0000   1.0000   1.0000   1.0000
     1.0000   1.0000   1.0000   1.0000   1.0000   1.0000   1.0000   1.0000
     1.0000   1.0000   1.0000   1.0000   1.0000   1.0000   1.0000   1.0000
     1.0000   1.0000   1.0000   1.0000   1.0000   1.0000   1.0000   1.0000
     1.0000   1.0000   1.0000   1.0000   1.0000   1.0000   1.0000   1.0000
     1.0000   1.0000   1.0000   1.0000   1.0000   1.0000   1.0000   1.0000
     1.0000   1.0000   1.0000   1.0000   1.0000   1.0000   1.0000   1.0000
     1.0000   1.0000   1.0000   1.0000   1.0000   1.0000   1.0000   1.0000
     1.0000   1.0000   1.0000   1.0000   1.0000   1.0000   1.0000   1.0000
     1.0000   1.0000   1.0000   1.0000   1.0000   1.0000   1.0000   1.0000
     1.0000   1.0000   1.0000   1.0000   1.0000   1.0000   1.0000   1.0000
     1.0000   1.0000   1.0000   1.0000   1.0000   1.0000   1.0000   1.0000
     1.0000   1.0000   1.0000   1.0000   1.0000   1.0000   1.0000   1.0000
     1.0000   1.0000   1.0000   1.0000   1.0000   1.0000   1.0000   1.0000
     1.0000   1.0000   1.0000   1.0000   1.0000   1.0000   1.0000   1.0000
     1.0000   1.0000   1.0000   1.0000   1.0000   1.0001   1.0001   1.0001
     1.0001   1.0001   1.0002   1.0002   1.0002   1.0002   1.0003   1.0004
     1.0005   1.0005   1.0009   1.0010   1.0010   1.0013   1.0016   1.0022
     1.0027   1.0030   1.0036   1.0044   1.0054   1.0058   1.0063   1.0094
     1.0109   1.0124   1.0131   1.0145   1.0179   1.0199   1.0227   1.0261
     1.0291   1.0307   1.0337   1.0373   1.0396   1.0436   1.0465   1.0490
     1.0610   1.0635   1.0719   1.0760   1.0809   1.0817   1.0833   1.0826
     1.0816   1.0756   1.0698   1.0692   1.0501   1.0394   1.0223   0.9870
     0.9137   0.8909   0.8573   0.8008   0.7379   0.6414   0.5120   0.4607
     0.3614   0.1114   0.0693   0.0504   0.0438   0.0183   0.0094   0.0084
     0.0047   0.0034   0.0031   0.0019   0.0016   0.0011   0.0007   0.0004
     0.0004   0.0003   0.0003   0.0001   0.0001   0.0001   0.0001   0.0000
     0.0000   0.0000   0.0000   0.0000   0.0000   0.0000   0.0000   0.0000
     0.0000   0.0000   0.0000   0.0000   0.0000   0.0000   0.0000   0.0000
     0.0000   0.0000   0.0000   0.0000   0.0000   0.0000   0.0000   0.0000
     0.0000   0.0000   0.0000   0.0000   0.0000   0.0000   0.0000   0.0000
     0.0000   0.0000   0.0000   0.0000   0.0000   0.0000   0.0000   0.0000
     0.0000   0.0000   0.0000   0.0000   0.0000   0.0000   0.0000   0.0000
     0.0000   0.0000   0.0000   0.0000   0.0000   0.0000   0.0000   0.0000
     0.0000   0.0000   0.0000   0.0000   0.0000   0.0000   0.0000   0.0000
     0.0000   0.0000   0.0000   0.0000   0.0000   0.0000   0.0000   0.0000
     0.0000   0.0000   0.0000   0.0000   0.0000   0.0000   0.0000   0.0000
     0.0000   0.0000   0.0000   0.0000   0.0000   0.0000   0.0000   0.0000
     0.0000   0.0000   0.0000   0.0000   0.0000   0.0000   0.0000   0.0000
     0.0000   0.0000   0.0000   0.0000   0.0000   0.0000   0.0000   0.0000
     0.0000   0.0000   0.0000   0.0000   0.0000   0.0000   0.0000   0.0000
     0.0000   0.0000   0.0000   0.0000   0.0000   0.0000   0.0000   0.0000
     0.0000   0.0000   0.0000   0.0000   0.0000   0.0000   0.0000   0.0000
[...]
     atom   18 type  1   force =     0.00000307    0.00000238   -0.00003002
     atom   19 type  1   force =     0.00000327    0.00000349    0.00001264
     atom   20 type  1   force =    -0.00000301   -0.00000418   -0.00002150
     atom   21 type  1   force =    -0.00000599   -0.00000133    0.00001294
     atom   22 type  1   force =     0.00000462   -0.00000745   -0.00002079
     atom   23 type  1   force =     0.00001779    0.00000025    0.00001946
     atom   24 type  1   force =     0.00000114   -0.00000087   -0.00002689
     atom   25 type  1   force =     0.00001453    0.00000687    0.00001112
     atom   26 type  1   force =     0.00000407   -0.00000203   -0.00003442
     atom   27 type  1   force =    -0.00000987   -0.00000400    0.00002650
     atom   28 type  1   force =    -0.00000094   -0.00000062   -0.00002836
     atom   29 type  1   force =    -0.00000740   -0.00000621    0.00000440
     atom   30 type  1   force =    -0.00000702    0.00000888   -0.00001641
     atom   31 type  1   force =    -0.00000408    0.00000822    0.00000306
     atom   32 type  1   force =    -0.00000633   -0.00002040   -0.00003102
     atom   33 type  1   force =     0.00000021   -0.00001118    0.00001112
     atom   34 type  1   force =    -0.00001380   -0.00000091   -0.00002757
     atom   35 type  1   force =    -0.00000221    0.00000296    0.00000473
     atom   36 type  1   force =     0.00000329    0.00000385   -0.00004461
     atom   37 type  1   force =    -0.00000825   -0.00001476    0.00001024
     atom   38 type  1   force =     0.00000617    0.00000637   -0.00003239
     atom   39 type  1   force =    -0.00000361    0.00001096    0.00000786
     atom   40 type  1   force =     0.00000261   -0.00000037   -0.00003434
     atom   41 type  1   force =     0.00000717   -0.00000461    0.00001666
     atom   42 type  1   force =     0.00001137   -0.00000740   -0.00001986
     atom   43 type  1   force =     0.00001034   -0.00000570    0.00002428
     atom   44 type  1   force =    -0.00000296   -0.00001466   -0.00001846
     atom   45 type  1   force =     0.00000785   -0.00000621    0.00002196
     atom   46 type  1   force =     0.00001238   -0.00002246   -0.00002647
     atom   47 type  1   force =    -0.00000536   -0.00000719    0.00000916
     atom   48 type  1   force =    -0.00000523   -0.00001411   -0.00002849
     atom   49 type  1   force =     0.00000378    0.00000910    0.00001982
     atom   50 type  1   force =    -0.00000512   -0.00000153   -0.00003571
     atom   51 type  1   force =    -0.00000785   -0.00000420    0.00000548
     atom   52 type  1   force =    -0.00000448    0.00000486   -0.00001537
     atom   53 type  1   force =     0.00000265   -0.00001400    0.00000917
     atom   54 type  1   force =    -0.00000314   -0.00000458   -0.00003662
     atom   55 type  1   force =    -0.00001019   -0.00002696    0.00001672
     atom   56 type  1   force =     0.00000362    0.00000822   -0.00002596
     atom   57 type  1   force =     0.00001216   -0.00000290    0.00000271
     atom   58 type  1   force =    -0.00000228    0.00000570   -0.00001414
     atom   59 type  1   force =     0.00000485   -0.00000699    0.00002277
     atom   60 type  1   force =    -0.00000462    0.00000223   -0.00002067
     atom   61 type  1   force =     0.00001122   -0.00001537    0.00002238
     atom   62 type  1   force =    -0.00000923   -0.00001204   -0.00001146
     atom   63 type  1   force =     0.00001607   -0.00000533    0.00000024
     atom   64 type  1   force =     0.00000547   -0.00002102    0.00000449
     atom   65 type  1   force =     0.00000179   -0.00001236   -0.00000155
     atom   66 type  1   force =     0.00000199   -0.00001602   -0.00002226
     atom   67 type  1   force =     0.00000837    0.00000198    0.00002131
     atom   68 type  1   force =     0.00000400   -0.00002256   -0.00001188
     atom   69 type  1   force =     0.00000199   -0.00001795    0.00002418
     atom   70 type  1   force =    -0.00000925   -0.00001033   -0.00001878
     atom   71 type  1   force =    -0.00001533   -0.00001208   -0.00000712
     atom   72 type  1   force =    -0.00000655   -0.00001394   -0.00001521
     atom   73 type  1   force =    -0.00000632   -0.00000936    0.00000690
     atom   74 type  1   force =     0.00001419   -0.00001217   -0.00002524
     atom   75 type  1   force =    -0.00001573   -0.00001251    0.00001367
     atom   76 type  1   force =     0.00001358   -0.00001599   -0.00000103
     atom   77 type  1   force =    -0.00001058   -0.00001071   -0.00000381
     atom   78 type  1   force =     0.00000421   -0.00000768   -0.00002374
     atom   79 type  1   force =     0.00000237   -0.00002818    0.00003061
     atom   80 type  1   force =     0.00000074   -0.00001806   -0.00001737
     atom   81 type  1   force =     0.00001013    0.00000057    0.00002624
     atom   82 type  1   force =     0.00000578   -0.00000851   -0.00000648
     atom   83 type  1   force =     0.00000144   -0.00002084    0.00000277
     atom   84 type  1   force =     0.00000822   -0.00000753   -0.00000293
     atom   85 type  1   force =     0.00000346   -0.00000456    0.00002357
     atom   86 type  1   force =    -0.00000012   -0.00001849   -0.00000189
     atom   87 type  1   force =     0.00001749   -0.00000715    0.00002998
     atom   88 type  1   force =    -0.00000693   -0.00001285   -0.00002216
     atom   89 type  1   force =     0.00000071   -0.00002037    0.00002294
     atom   90 type  1   force =    -0.00000853   -0.00000728   -0.00002867
     atom   91 type  1   force =    -0.00000957   -0.00000676    0.00002105
     atom   92 type  1   force =    -0.00001225   -0.00001314   -0.00002444
     atom   93 type  1   force =    -0.00000899   -0.00000453    0.00001108
     atom   94 type  1   force =     0.00000483   -0.00001530   -0.00002798
     atom   95 type  1   force =    -0.00000868   -0.00000823    0.00001259
     atom   96 type  1   force =     0.00000544   -0.00000643    0.00000058
     atom   97 type  1   force =    -0.00000523   -0.00000618    0.00002126
     atom   98 type  1   force =    -0.00000578   -0.00001888   -0.00000031
     atom   99 type  1   force =    -0.00000095   -0.00000180    0.00001779
     atom  100 type  1   force =    -0.00000565   -0.00000242   -0.00000552
     atom  101 type  1   force =     0.00000653   -0.00000305    0.00002449
     atom  102 type  1   force =    -0.00000280   -0.00001368   -0.00001547
     atom  103 type  1   force =     0.00000573    0.00000023    0.00002755
     atom  104 type  1   force =    -0.00000763   -0.00000696   -0.00000381
     atom  105 type  1   force =     0.00000073   -0.00001803    0.00002509
     atom  106 type  1   force =     0.00000888   -0.00000030   -0.00001000
     atom  107 type  1   force =     0.00000542   -0.00000820    0.00004124
     atom  108 type  1   force =    -0.00000434   -0.00001827   -0.00001162
     atom  109 type  1   force =    -0.00000149   -0.00001619    0.00003160
     atom  110 type  1   force =    -0.00000618   -0.00000336   -0.00000978
     atom  111 type  1   force =     0.00000792    0.00000124    0.00002590
     atom  112 type  1   force =    -0.00002249   -0.00000941   -0.00001549
     atom  113 type  1   force =    -0.00000686   -0.00000854    0.00001427
     atom  114 type  1   force =    -0.00000488   -0.00000836   -0.00001332
     atom  115 type  1   force =    -0.00000005   -0.00001303    0.00001740
     atom  116 type  1   force =     0.00000205    0.00001613   -0.00002083
     atom  117 type  1   force =     0.00000275   -0.00000734    0.00002779
     atom  118 type  1   force =    -0.00000237    0.00000624   -0.00001950
     atom  119 type  1   force =     0.00000546   -0.00000833    0.00002942
     atom  120 type  1   force =    -0.00000613    0.00000117   -0.00000428
     atom  121 type  1   force =    -0.00000311   -0.00000306    0.00001345
     atom  122 type  1   force =     0.00000424    0.00000015    0.00002457
     atom  123 type  1   force =     0.00000490    0.00000626    0.00002723
     atom  124 type  1   force =    -0.00000130   -0.00000786   -0.00001222
     atom  125 type  1   force =    -0.00000200    0.00000344    0.00002780
     atom  126 type  1   force =     0.00001324    0.00000139   -0.00001299
     atom  127 type  1   force =    -0.00001090   -0.00000813    0.00002346
     atom  128 type  1   force =     0.00000630   -0.00000268    0.00000220
     atom  129 type  1   force =    -0.00000604   -0.00000932    0.00002256
     atom  130 type  1   force =    -0.00000353   -0.00001359   -0.00000604
     atom  131 type  1   force =    -0.00000183   -0.00002253    0.00001687
     atom  132 type  1   force =    -0.00000541    0.00000132    0.00000795
     atom  133 type  1   force =     0.00001638    0.00000139    0.00001493
     atom  134 type  1   force =     0.00000480    0.00000078   -0.00001266
     atom  135 type  1   force =     0.00000574   -0.00000040    0.00002327
     atom  136 type  1   force =    -0.00000440   -0.00000876   -0.00000461
     atom  137 type  1   force =     0.00000290   -0.00000060    0.00002681
     atom  138 type  1   force =    -0.00000579    0.00000138   -0.00000795
     atom  139 type  1   force =     0.00000379   -0.00000294    0.00002452
     atom  140 type  1   force =     0.00001016    0.00000153   -0.00000707
     atom  141 type  1   force =    -0.00000137    0.00000571    0.00002372
     atom  142 type  1   force =    -0.00001428    0.00000658    0.00000239
     atom  143 type  1   force =     0.00000590    0.00000230    0.00002148
     atom  144 type  1   force =    -0.00000231    0.00001771    0.00000262
     atom  145 type  1   force =    -0.00000464    0.00001472    0.00001738
     atom  146 type  1   force =     0.00001162    0.00000738   -0.00000784
     atom  147 type  1   force =    -0.00001267    0.00000862    0.00002216
     atom  148 type  1   force =     0.00001005    0.00001118   -0.00000798
     atom  149 type  1   force =    -0.00001248    0.00001553    0.00001887
     atom  150 type  1   force =    -0.00000509    0.00001507   -0.00000277
     atom  151 type  1   force =    -0.00000059    0.00001794    0.00001742
     atom  152 type  1   force =     0.00000440    0.00001096   -0.00000568
     atom  153 type  1   force =    -0.00000139    0.00000383    0.00001906
     atom  154 type  1   force =    -0.00000303    0.00001538   -0.00001666
     atom  155 type  1   force =    -0.00000609    0.00001134    0.00002774
     atom  156 type  1   force =    -0.00000405    0.00000585   -0.00002080
     atom  157 type  1   force =     0.00000258    0.00000516    0.00001474
     atom  158 type  1   force =    -0.00001178    0.00000474   -0.00000586
     atom  159 type  1   force =     0.00001499    0.00000360    0.00002190
     atom  160 type  1   force =     0.00000529    0.00001072   -0.00000889
     atom  161 type  1   force =     0.00000360    0.00001343    0.00001835
     atom  162 type  1   force =     0.00000547    0.00001581   -0.00000411
     atom  163 type  1   force =    -0.00000111    0.00001469    0.00002158
     atom  164 type  1   force =     0.00000176    0.00000106   -0.00001017
     atom  165 type  1   force =     0.00001297    0.00001906    0.00001787
     atom  166 type  1   force =     0.00000586    0.00002372   -0.00001083
     atom  167 type  1   force =    -0.00000377    0.00001800    0.00002375
     atom  168 type  1   force =    -0.00001153    0.00001728   -0.00002041
     atom  169 type  1   force =    -0.00000438    0.00000458    0.00001484
     atom  170 type  1   force =    -0.00000043    0.00000681   -0.00002088
     atom  171 type  1   force =     0.00000319    0.00000838    0.00001119
     atom  172 type  1   force =    -0.00000118    0.00001050   -0.00001974
     atom  173 type  1   force =    -0.00000811    0.00000473    0.00002269
     atom  174 type  1   force =    -0.00001837    0.00001200   -0.00002460
     atom  175 type  1   force =     0.00001432   -0.00000596    0.00001930
     atom  176 type  1   force =     0.00000538    0.00001485   -0.00002071
     atom  177 type  1   force =     0.00000845    0.00000036    0.00002011
     atom  178 type  1   force =    -0.00000203    0.00001848   -0.00000085
     atom  179 type  1   force =    -0.00000614    0.00000732    0.00002265
     atom  180 type  1   force =     0.00001372    0.00000892   -0.00001363
     atom  181 type  1   force =     0.00000561    0.00000165    0.00002693
     atom  182 type  1   force =     0.00000365    0.00001021   -0.00002053
     atom  183 type  1   force =    -0.00001187    0.00001123    0.00002339
     atom  184 type  1   force =     0.00000196    0.00001475   -0.00001567
     atom  185 type  1   force =     0.00000547    0.00001337    0.00001342
     atom  186 type  1   force =     0.00000070   -0.00000421   -0.00001203
     atom  187 type  1   force =    -0.00000767    0.00001570    0.00001637
     atom  188 type  1   force =    -0.00002241    0.00000536   -0.00002893
     atom  189 type  1   force =     0.00000622    0.00000597    0.00001412
     atom  190 type  1   force =     0.00000967    0.00001729   -0.00002178
     atom  191 type  1   force =    -0.00001823   -0.00000084    0.00001173
     atom  192 type  1   force =    -0.00000667    0.00001604   -0.00002971
     atom  193 type  1   force =    -0.00001338    0.00001892    0.00001292
     atom  194 type  1   force =     0.00000136    0.00000498   -0.00002702
     atom  195 type  1   force =    -0.00000205    0.00000619    0.00001020
     atom  196 type  1   force =     0.00000083    0.00000861   -0.00002134
     atom  197 type  1   force =     0.00000577    0.00001096    0.00001318
     atom  198 type  1   force =     0.00000296    0.00000588   -0.00002083
     atom  199 type  1   force =     0.00000636    0.00001056    0.00001150
     atom  200 type  1   force =     0.00000446    0.00001059   -0.00002150

     Total force =     0.369223     Total SCF correction =     0.000338


     Computing stress (Cartesian axis) and pressure


     negative rho (up, down):  4.019E-02 0.000E+00
          total   stress  (Ry/bohr**3)                   (kbar)     P=   -1.59
  -0.00001201  -0.00000028   0.00000102         -1.77     -0.04      0.15
  -0.00000028  -0.00001069   0.00000005         -0.04     -1.57      0.01
   0.00000102   0.00000005  -0.00000968          0.15      0.01     -1.42

     kinetic stress (kbar)    482.19      0.02     -0.03
                                0.02    482.09     -0.01
                               -0.03     -0.01    487.36

     local   stress (kbar) -51540.29     -5.57    -21.38
                               -5.57 -51579.49     -7.30
                              -21.38     -7.30  51504.96

     nonloc. stress (kbar)    601.66     -0.06      0.03
                               -0.06    601.82      0.02
                                0.03      0.02    591.62

     hartree stress (kbar)  26195.69      3.51      9.00
                                3.51  26212.19      3.30
                                9.00      3.30 -24722.88

     exc-cor stress (kbar)    768.23     -0.00      0.00
                               -0.00    768.24      0.00
                                0.00      0.00    767.47

     corecor stress (kbar)  -1148.42      0.00     -0.00
                                0.00  -1148.43     -0.00
                               -0.00     -0.00  -1148.01

     ewald   stress (kbar)  24639.18      2.06     12.54
                                2.06  24662.02      4.01
                               12.54      4.01 -27481.96

     hubbard stress (kbar)      0.00      0.00      0.00
                                0.00      0.00      0.00
                                0.00      0.00      0.00

     london  stress (kbar)      0.00      0.00      0.00
                                0.00      0.00      0.00
                                0.00      0.00      0.00

     DFT-D3  stress (kbar)      0.00      0.00      0.00
                                0.00      0.00      0.00
                                0.00      0.00      0.00

     XDM     stress (kbar)      0.00      0.00      0.00
                                0.00      0.00      0.00
                                0.00      0.00      0.00

     dft-nl  stress (kbar)      0.00      0.00      0.00
                                0.00      0.00      0.00
                                0.00      0.00      0.00

     TS-vdW  stress (kbar)      0.00      0.00      0.00
                                0.00      0.00      0.00
                                0.00      0.00      0.00



     Writing output data file scf.save/
 
     init_run     :    109.01s CPU    114.89s WALL (       1 calls)
     electrons    :  11801.62s CPU  12016.65s WALL (       1 calls)
     forces       :     15.92s CPU     16.61s WALL (       1 calls)
     stress       :    280.24s CPU    282.27s WALL (       1 calls)

     Called by init_run:
     wfcinit      :     71.41s CPU     72.73s WALL (       1 calls)
     wfcinit:atom :      0.04s CPU      0.09s WALL (       1 calls)
     wfcinit:wfcr :     71.27s CPU     72.46s WALL (       1 calls)
     potinit      :      1.34s CPU      1.39s WALL (       1 calls)
     hinit0       :      5.78s CPU      9.80s WALL (       1 calls)

     Called by electrons:
     c_bands      :   7658.13s CPU   7794.32s WALL (      29 calls)
     sum_band     :    882.43s CPU    902.30s WALL (      29 calls)
     v_of_rho     :     23.42s CPU     23.93s WALL (      30 calls)
     v_h          :      3.33s CPU      3.39s WALL (      30 calls)
     v_xc         :     21.41s CPU     21.88s WALL (      32 calls)
     newd         :     33.97s CPU     38.62s WALL (      30 calls)
     mix_rho      :   3198.56s CPU   3250.77s WALL (      29 calls)

     Called by c_bands:
     init_us_2    :      5.47s CPU      5.56s WALL (      59 calls)
     regterg      :   7612.81s CPU   7748.05s WALL (      35 calls)

     Called by sum_band:
     sum_band:bec :      0.70s CPU      0.70s WALL (      29 calls)
     addusdens    :     23.61s CPU     28.02s WALL (      29 calls)

     Called by *egterg:
     h_psi        :   5141.84s CPU   5228.92s WALL (     478 calls)
     s_psi        :    208.64s CPU    210.37s WALL (     478 calls)
     g_psi        :      1.93s CPU      1.94s WALL (     442 calls)
     rdiaghg      :   1187.46s CPU   1204.15s WALL (     477 calls)
     regterg:over :    430.16s CPU    438.47s WALL (     442 calls)
     regterg:upda :    429.83s CPU    433.31s WALL (     442 calls)
     regterg:last :    152.99s CPU    153.91s WALL (      37 calls)
     rdiaghg:chol :     30.29s CPU     30.91s WALL (     477 calls)
     rdiaghg:inve :     32.98s CPU     33.51s WALL (     477 calls)
     rdiaghg:para :     88.23s CPU     92.39s WALL (     954 calls)

     Called by h_psi:
     h_psi:pot    :   5137.79s CPU   5224.84s WALL (     478 calls)
     h_psi:calbec :    246.58s CPU    250.79s WALL (     478 calls)
     vloc_psi     :   4680.60s CPU   4761.06s WALL (     478 calls)
     add_vuspsi   :    210.61s CPU    212.99s WALL (     478 calls)

     General routines
     calbec       :    326.21s CPU    332.12s WALL (     512 calls)
     fft          :     50.57s CPU     55.45s WALL (     348 calls)
     ffts         :   2906.96s CPU   2956.58s WALL (   65985 calls)
     fftw         :   5183.10s CPU   5275.31s WALL (  181318 calls)
     interpolate  :      4.39s CPU      4.46s WALL (      30 calls)
 
     Parallel routines
     fft_scatt_xy :    180.99s CPU    182.37s WALL (  247651 calls)
     fft_scatt_yz :   7411.00s CPU   7552.54s WALL (  247651 calls)
 
     PWSCF        :      3h24m CPU      3h29m WALL

 
   This run was terminated on:  15:16:26   2Dec2019            

=------------------------------------------------------------------------------=
   JOB DONE.
=------------------------------------------------------------------------------=
