
     Program PWSCF v.6.3 starts on  4Dec2019 at 16:17:52 

     This program is part of the open-source Quantum ESPRESSO suite
     for quantum simulation of materials; please cite
         "P. Giannozzi et al., J. Phys.:Condens. Matter 21 395502 (2009);
         "P. Giannozzi et al., J. Phys.:Condens. Matter 29 465901 (2017);
          URL http://www.quantum-espresso.org", 
     in publications or presentations arising from this work. More details at
     http://www.quantum-espresso.org/quote

     Parallel version (MPI), running on   448 processors

     MPI processes distributed on    14 nodes
     R & G space division:  proc/nbgrp/npool/nimage =     448
     Reading input from scf.pwi
Warning: card &IONS ignored
Warning: card / ignored
Warning: card &CELL ignored
Warning: card    CELL_DOFREE      = '2DXY' ignored
Warning: card / ignored

     Current dimensions of program PWSCF are:
     Max number of different atomic species (ntypx) = 10
     Max number of k-points (npk) =  40000
     Max angular momentum in pseudopotentials (lmaxx) =  3

     gamma-point specific algorithms are used

     Subspace diagonalization in iterative solution of the eigenvalue problem:
     one sub-group per band group will be used
     scalapack distributed-memory algorithm (size of sub-group: 14* 14 procs)

 
     Parallelization info
     --------------------
     sticks:   dense  smooth     PW     G-vecs:    dense   smooth      PW
     Min         460     229     56               184940    65380    8140
     Max         462     232     58               184994    65412    8198
     Sum      206659  103297  25827             82864339 29296605 3662131
 


     bravais-lattice index     =            0
     lattice parameter (alat)  =      74.9798  a.u.
     unit-cell volume          =  613376.7080 (a.u.)^3
     number of atoms/cell      =          200
     number of atomic types    =            1
     number of electrons       =      2800.00
     number of Kohn-Sham states=         1680
     kinetic-energy cutoff     =      50.0000  Ry
     charge density cutoff     =     400.0000  Ry
     convergence threshold     =      2.0E-08
     mixing beta               =       0.4000
     number of iterations used =            8  local-TF  mixing
     Exchange-correlation      = SLA  PW   PSX  PSC ( 1  4 10  8 0 0)

     celldm(1)=  74.979798  celldm(2)=   0.000000  celldm(3)=   0.000000
     celldm(4)=   0.000000  celldm(5)=   0.000000  celldm(6)=   0.000000

     crystal axes: (cart. coord. in units of alat)
               a(1) = (   1.000000   0.000000   0.000000 )  
               a(2) = (   0.000000   1.154702   0.000000 )  
               a(3) = (   0.000000   0.000000   1.260157 )  

     reciprocal axes: (cart. coord. in units 2 pi/alat)
               b(1) = (  1.000000  0.000000  0.000000 )  
               b(2) = (  0.000000  0.866024  0.000000 )  
               b(3) = (  0.000000  0.000000  0.793552 )  


     PseudoPot. # 1 for Sn read from file:
     /n/home08/xiey/q-e/pseudo/sn_pbesol_v1.4.uspp.F.UPF
     MD5 check sum: 463fec1d5456f1e96ec1bfcad4b7b038
     Pseudo is Ultrasoft + core correction, Zval = 14.0
     Generated by new atomic code, or converted to UPF format
     Using radial grid of  891 points,  6 beta functions with: 
                l(1) =   0
                l(2) =   0
                l(3) =   1
                l(4) =   1
                l(5) =   2
                l(6) =   2
     Q(r) pseudized with  8 coefficients,  rinner =    1.350   1.350   1.350
                                                       1.350   1.350

     atomic species   valence    mass     pseudopotential
        Sn            14.00   118.71000     Sn( 1.00)

     No symmetry found


                                    s                        frac. trans.

      isym =  1     identity                                     

 cryst.   s( 1) = (     1          0          0      )
                  (     0          1          0      )
                  (     0          0          1      )

 cart.    s( 1) = (  1.0000000  0.0000000  0.0000000 )
                  (  0.0000000  1.0000000  0.0000000 )
                  (  0.0000000  0.0000000  1.0000000 )


   Cartesian axes

     site n.     atom                  positions (alat units)
         1           Sn  tau(   1) = (   0.0038350   0.0491912  -0.0069482  )
         2           Sn  tau(   2) = (   0.0355566  -0.0064712   0.0227995  )
         3           Sn  tau(   3) = (   0.1014313   1.1520480   1.2571476  )
         4           Sn  tau(   4) = (   0.1328334   0.0537386   0.0242722  )
         5           Sn  tau(   5) = (   0.1992288   0.0525420   0.0077187  )
         6           Sn  tau(   6) = (   0.2322262   1.1550169   0.0372908  )
         7           Sn  tau(   7) = (   0.2998392   1.1583589   0.0041057  )
         8           Sn  tau(   8) = (   0.3328427   0.0630421   0.0202199  )
         9           Sn  tau(   9) = (   0.3986985   0.0565223   1.2615985  )
        10           Sn  tau(  10) = (   0.4313517   0.0001644   0.0240105  )
        11           Sn  tau(  11) = (   0.4987046   0.0079747   0.0048121  )
        12           Sn  tau(  12) = (   0.5314157   0.0643391   0.0296893  )
        13           Sn  tau(  13) = (   0.5955552   0.0639008   1.2641314  )
        14           Sn  tau(  14) = (   0.6364296   1.1603449   0.0257495  )
        15           Sn  tau(  15) = (   0.7022199   0.0027120   1.2671230  )
        16           Sn  tau(  16) = (   0.7363071   0.0601972   0.0260580  )
        17           Sn  tau(  17) = (   0.8086427   0.0492812   0.0267859  )
        18           Sn  tau(  18) = (   0.8378909   1.1391087   0.0225613  )
        19           Sn  tau(  19) = (   0.9063174   1.1451549   1.2562655  )
        20           Sn  tau(  20) = (   0.9361226   0.0506528   0.0114928  )
        21           Sn  tau(  21) = (   0.0041913   0.1682796   1.2513257  )
        22           Sn  tau(  22) = (   0.0360685   0.1102436   0.0142129  )
        23           Sn  tau(  23) = (   0.1044242   0.1104429   1.2528958  )
        24           Sn  tau(  24) = (   0.1374682   0.1744964   1.2679623  )
        25           Sn  tau(  25) = (   0.2058917   0.1724857   1.2491154  )
        26           Sn  tau(  26) = (   0.2300099   0.1139756   0.0192645  )
        27           Sn  tau(  27) = (   0.2946927   0.1156993   1.2504814  )
        28           Sn  tau(  28) = (   0.3262798   0.1745085   0.0119301  )
        29           Sn  tau(  29) = (   0.3959337   0.1804086   0.0217522  )
        30           Sn  tau(  30) = (   0.4308476   0.1176639   0.0220997  )
        31           Sn  tau(  31) = (   0.4964489   0.1172039   0.0003789  )
        32           Sn  tau(  32) = (   0.5276302   0.1734437   0.0159676  )
        33           Sn  tau(  33) = (   0.5973622   0.1773038   0.0250030  )
        34           Sn  tau(  34) = (   0.6363565   0.1245068   0.0101585  )
        35           Sn  tau(  35) = (   0.6969676   0.1151602   0.0423236  )
        36           Sn  tau(  36) = (   0.7314908   0.1773205   0.0337203  )
        37           Sn  tau(  37) = (   0.7981481   0.1683081   0.0145045  )
        38           Sn  tau(  38) = (   0.8309600   0.1146282   0.0495655  )
        39           Sn  tau(  39) = (   0.9005661   0.1096168   0.0297289  )
        40           Sn  tau(  40) = (   0.9355052   0.1681465   0.0083091  )
        41           Sn  tau(  41) = (  -0.0000258   0.2841427   1.2604820  )
        42           Sn  tau(  42) = (   0.0371819   0.2267136   0.0084949  )
        43           Sn  tau(  43) = (   0.0999977   0.2286625   1.2423861  )
        44           Sn  tau(  44) = (   0.1340000   0.2859951   1.2695803  )
        45           Sn  tau(  45) = (   0.1988442   0.2800119   1.2453903  )
        46           Sn  tau(  46) = (   0.2307887   0.2300366   0.0213838  )
        47           Sn  tau(  47) = (   0.2971652   0.2336338   1.2510888  )
        48           Sn  tau(  48) = (   0.3346977   0.2857633   0.0125268  )
        49           Sn  tau(  49) = (   0.4004753   0.2909904   1.2515878  )
        50           Sn  tau(  50) = (   0.4311097   0.2410078   0.0258950  )
        51           Sn  tau(  51) = (   0.4956903   0.2343330   0.0080551  )
        52           Sn  tau(  52) = (   0.5355591   0.2924547   1.2616388  )
        53           Sn  tau(  53) = (   0.6020525   0.2953631  -0.0012976  )
        54           Sn  tau(  54) = (   0.6347461   0.2398870   0.0171409  )
        55           Sn  tau(  55) = (   0.7032280   0.2321804   1.2596452  )
        56           Sn  tau(  56) = (   0.7371414   0.2908467   0.0204242  )
        57           Sn  tau(  57) = (   0.8053612   0.2854734   0.0093037  )
        58           Sn  tau(  58) = (   0.8343801   0.2268386   0.0308983  )
        59           Sn  tau(  59) = (   0.9000645   0.2277855   0.0036145  )
        60           Sn  tau(  60) = (   0.9326295   0.2849769   0.0228632  )
        61           Sn  tau(  61) = (  -0.0008191   0.4047347   1.2523918  )
        62           Sn  tau(  62) = (   0.0328757   0.3447159   0.0156933  )
        63           Sn  tau(  63) = (   0.0973078   0.3414546   1.2527572  )
        64           Sn  tau(  64) = (   0.1293571   0.4024639   1.2642549  )
        65           Sn  tau(  65) = (   0.2003249   0.4065770   1.2558875  )
        66           Sn  tau(  66) = (   0.2322275   0.3426089   1.2507611  )
        67           Sn  tau(  67) = (   0.3052251   0.3436750   1.2442285  )
        68           Sn  tau(  68) = (   0.3340096   0.3949886   0.0257891  )
        69           Sn  tau(  69) = (   0.3999788   0.4037618   0.0010421  )
        70           Sn  tau(  70) = (   0.4347415   0.3473698   0.0205582  )
        71           Sn  tau(  71) = (   0.4993472   0.3528238   1.2577474  )
        72           Sn  tau(  72) = (   0.5294398   0.4115093   0.0203493  )
        73           Sn  tau(  73) = (   0.5969892   0.4046893  -0.0030192  )
        74           Sn  tau(  74) = (   0.6420298   0.3517375   0.0239703  )
        75           Sn  tau(  75) = (   0.7074974   0.3496230  -0.0033392  )
        76           Sn  tau(  76) = (   0.7335625   0.4030334   0.0365168  )
        77           Sn  tau(  77) = (   0.8024956   0.4076456   0.0248213  )
        78           Sn  tau(  78) = (   0.8381505   0.3465835   0.0280831  )
        79           Sn  tau(  79) = (   0.9027386   0.3443253   0.0029312  )
        80           Sn  tau(  80) = (   0.9335418   0.4084748   0.0181332  )
        81           Sn  tau(  81) = (   0.9963909   0.5224005  -0.0020172  )
        82           Sn  tau(  82) = (   0.0340925   0.4622003   0.0038139  )
        83           Sn  tau(  83) = (   0.1016780   0.4614039   1.2407202  )
        84           Sn  tau(  84) = (   0.1351044   0.5173624   0.0111428  )
        85           Sn  tau(  85) = (   0.2082243   0.5161073   1.2622462  )
        86           Sn  tau(  86) = (   0.2308885   0.4583241   0.0343342  )
        87           Sn  tau(  87) = (   0.2977448   0.4543143   0.0103453  )
        88           Sn  tau(  88) = (   0.3343448   0.5125360   0.0105380  )
        89           Sn  tau(  89) = (   0.4013700   0.5202331   0.0240114  )
        90           Sn  tau(  90) = (   0.4331638   0.4625280   0.0353542  )
        91           Sn  tau(  91) = (   0.4937572   0.4694588   1.2546525  )
        92           Sn  tau(  92) = (   0.5355263   0.5201045   0.0091311  )
        93           Sn  tau(  93) = (   0.6026524   0.5235372   1.2469630  )
        94           Sn  tau(  94) = (   0.6321426   0.4655246   0.0186735  )
        95           Sn  tau(  95) = (   0.7074722   0.4646702   0.0135310  )
        96           Sn  tau(  96) = (   0.7341800   0.5279830   0.0287170  )
        97           Sn  tau(  97) = (   0.7987832   0.5101014   0.0173816  )
        98           Sn  tau(  98) = (   0.8361670   0.4623969   0.0522222  )
        99           Sn  tau(  99) = (   0.8949231   0.4654263   0.0084062  )
       100           Sn  tau( 100) = (   0.9332167   0.5231440   0.0272169  )
       101           Sn  tau( 101) = (   0.0058018   0.6391717   0.0166077  )
       102           Sn  tau( 102) = (   0.0367784   0.5780188   0.0199071  )
       103           Sn  tau( 103) = (   0.1028326   0.5742636  -0.0024844  )
       104           Sn  tau( 104) = (   0.1410050   0.6335539   1.2528555  )
       105           Sn  tau( 105) = (   0.2078374   0.6289720   1.2357149  )
       106           Sn  tau( 106) = (   0.2404364   0.5773283   0.0048918  )
       107           Sn  tau( 107) = (   0.3076043   0.5757909   1.2488356  )
       108           Sn  tau( 108) = (   0.3387150   0.6267541   0.0232855  )
       109           Sn  tau( 109) = (   0.4063502   0.6363439   0.0016877  )
       110           Sn  tau( 110) = (   0.4316012   0.5838660   0.0367837  )
       111           Sn  tau( 111) = (   0.4987575   0.5794277   0.0079963  )
       112           Sn  tau( 112) = (   0.5351735   0.6378738   0.0241753  )
       113           Sn  tau( 113) = (   0.5990937   0.6320745   1.2559177  )
       114           Sn  tau( 114) = (   0.6372210   0.5764865   0.0160967  )
       115           Sn  tau( 115) = (   0.7017587   0.5782986   1.2517592  )
       116           Sn  tau( 116) = (   0.7345958   0.6376696   0.0149542  )
       117           Sn  tau( 117) = (   0.8035642   0.6283394   0.0024673  )
       118           Sn  tau( 118) = (   0.8354916   0.5689054   0.0273068  )
       119           Sn  tau( 119) = (   0.9003644   0.5756926   1.2604543  )
       120           Sn  tau( 120) = (   0.9381490   0.6358449   0.0199816  )
       121           Sn  tau( 121) = (   0.0027253   0.7533193   1.2559479  )
       122           Sn  tau( 122) = (   0.0412764   0.7013831   0.0244932  )
       123           Sn  tau( 123) = (   0.1038944   0.6943263   1.2486743  )
       124           Sn  tau( 124) = (   0.1365090   0.7495337   0.0188005  )
       125           Sn  tau( 125) = (   0.2025145   0.7454483   1.2532058  )
       126           Sn  tau( 126) = (   0.2408409   0.6860672   1.2602325  )
       127           Sn  tau( 127) = (   0.3102128   0.6913725   1.2553305  )
       128           Sn  tau( 128) = (   0.3352799   0.7494556   0.0241103  )
       129           Sn  tau( 129) = (   0.4042835   0.7495186   0.0025214  )
       130           Sn  tau( 130) = (   0.4381288   0.6952084   0.0280186  )
       131           Sn  tau( 131) = (   0.5052322   0.6971616   0.0091849  )
       132           Sn  tau( 132) = (   0.5365672   0.7557942   0.0366161  )
       133           Sn  tau( 133) = (   0.5995524   0.7567066   0.0058856  )
       134           Sn  tau( 134) = (   0.6318149   0.6922268   0.0065182  )
       135           Sn  tau( 135) = (   0.7020309   0.6983764  -0.0033314  )
       136           Sn  tau( 136) = (   0.7368767   0.7545416   0.0170064  )
       137           Sn  tau( 137) = (   0.8031484   0.7514996   1.2570065  )
       138           Sn  tau( 138) = (   0.8351841   0.6921336   0.0164119  )
       139           Sn  tau( 139) = (   0.9017683   0.6877810  -0.0060261  )
       140           Sn  tau( 140) = (   0.9307972   0.7476889   0.0122830  )
       141           Sn  tau( 141) = (   1.0026539   0.8669426   1.2556379  )
       142           Sn  tau( 142) = (   0.0347050   0.8079345   0.0208479  )
       143           Sn  tau( 143) = (   0.1005940   0.8034559   1.2602476  )
       144           Sn  tau( 144) = (   0.1308504   0.8610299   0.0183898  )
       145           Sn  tau( 145) = (   0.2015056   0.8595127   0.0145121  )
       146           Sn  tau( 146) = (   0.2327114   0.7979994   0.0228101  )
       147           Sn  tau( 147) = (   0.2994410   0.8052554  -0.0047228  )
       148           Sn  tau( 148) = (   0.3280592   0.8670030   0.0267728  )
       149           Sn  tau( 149) = (   0.3974232   0.8619599   0.0093419  )
       150           Sn  tau( 150) = (   0.4340484   0.8068180   0.0263874  )
       151           Sn  tau( 151) = (   0.5010434   0.8110521   0.0093859  )
       152           Sn  tau( 152) = (   0.5240614   0.8734122   0.0316330  )
       153           Sn  tau( 153) = (   0.5952628   0.8679431   0.0214884  )
       154           Sn  tau( 154) = (   0.6330600   0.8076295   0.0376968  )
       155           Sn  tau( 155) = (   0.6950244   0.8133859   0.0108023  )
       156           Sn  tau( 156) = (   0.7356367   0.8692058   0.0206765  )
       157           Sn  tau( 157) = (   0.7987933   0.8703072  -0.0027539  )
       158           Sn  tau( 158) = (   0.8312600   0.8111579   0.0214638  )
       159           Sn  tau( 159) = (   0.9000368   0.8107219   0.0047591  )
       160           Sn  tau( 160) = (   0.9325010   0.8699695   0.0225869  )
       161           Sn  tau( 161) = (   0.0091065   0.9863701   0.0079851  )
       162           Sn  tau( 162) = (   0.0353320   0.9252551   0.0130558  )
       163           Sn  tau( 163) = (   0.1049650   0.9232690   1.2596024  )
       164           Sn  tau( 164) = (   0.1350094   0.9844698   0.0258761  )
       165           Sn  tau( 165) = (   0.2014865   0.9863399   0.0113773  )
       166           Sn  tau( 166) = (   0.2268829   0.9237731   0.0231690  )
       167           Sn  tau( 167) = (   0.2942365   0.9249854   0.0052382  )
       168           Sn  tau( 168) = (   0.3357890   0.9799131   0.0225498  )
       169           Sn  tau( 169) = (   0.3964731   0.9888375   1.2503755  )
       170           Sn  tau( 170) = (   0.4308552   0.9266488   0.0024902  )
       171           Sn  tau( 171) = (   0.5005721   0.9265354  -0.0034551  )
       172           Sn  tau( 172) = (   0.5359220   0.9869196   0.0164002  )
       173           Sn  tau( 173) = (   0.6007747   0.9830761   1.2531605  )
       174           Sn  tau( 174) = (   0.6299801   0.9298017   0.0245482  )
       175           Sn  tau( 175) = (   0.6941045   0.9215704   1.2571602  )
       176           Sn  tau( 176) = (   0.7297039   0.9800643   0.0095278  )
       177           Sn  tau( 177) = (   0.7971021   0.9806717   1.2550709  )
       178           Sn  tau( 178) = (   0.8348287   0.9242797   0.0184222  )
       179           Sn  tau( 179) = (   0.8995101   0.9208294  -0.0084992  )
       180           Sn  tau( 180) = (   0.9365738   0.9781917   0.0160020  )
       181           Sn  tau( 181) = (   0.0069446   1.0878833  -0.0073323  )
       182           Sn  tau( 182) = (   0.0363835   1.0404561   0.0374337  )
       183           Sn  tau( 183) = (   0.1015054   1.0497812   0.0074473  )
       184           Sn  tau( 184) = (   0.1452621   1.1049282   0.0253980  )
       185           Sn  tau( 185) = (   0.2139658   1.0954040   0.0012870  )
       186           Sn  tau( 186) = (   0.2380698   1.0401335   0.0412769  )
       187           Sn  tau( 187) = (   0.2983976   1.0383188   0.0120846  )
       188           Sn  tau( 188) = (   0.3338760   1.0977277   0.0134421  )
       189           Sn  tau( 189) = (   0.4015389   1.0986048  -0.0012980  )
       190           Sn  tau( 190) = (   0.4298471   1.0397554   0.0278923  )
       191           Sn  tau( 191) = (   0.4958818   1.0435838   0.0018416  )
       192           Sn  tau( 192) = (   0.5298204   1.1025566   0.0208524  )
       193           Sn  tau( 193) = (   0.6007798   1.1039554   0.0046597  )
       194           Sn  tau( 194) = (   0.6357794   1.0422455   0.0042652  )
       195           Sn  tau( 195) = (   0.7048738   1.0418019   1.2494707  )
       196           Sn  tau( 196) = (   0.7293107   1.0969842   0.0241358  )
       197           Sn  tau( 197) = (   0.7945113   1.0906985  -0.0025586  )
       198           Sn  tau( 198) = (   0.8383672   1.0360556   0.0129531  )
       199           Sn  tau( 199) = (   0.9066753   1.0342586   1.2576870  )
       200           Sn  tau( 200) = (   0.9415161   1.0863888   0.0193817  )

   Crystallographic axes

     site n.     atom                  positions (cryst. coord.)
         1           Sn  tau(   1) = (  0.0038350  0.0426008 -0.0055137  )
         2           Sn  tau(   2) = (  0.0355566 -0.0056042  0.0180926  )
         3           Sn  tau(   3) = (  0.1014313  0.9977017  0.9976120  )
         4           Sn  tau(   4) = (  0.1328334  0.0465390  0.0192612  )
         5           Sn  tau(   5) = (  0.1992288  0.0455026  0.0061252  )
         6           Sn  tau(   6) = (  0.2322262  1.0002728  0.0295922  )
         7           Sn  tau(   7) = (  0.2998392  1.0031670  0.0032581  )
         8           Sn  tau(   8) = (  0.3328427  0.0545960  0.0160455  )
         9           Sn  tau(   9) = (  0.3986985  0.0489497  1.0011440  )
        10           Sn  tau(  10) = (  0.4313517  0.0001424  0.0190536  )
        11           Sn  tau(  11) = (  0.4987046  0.0069063  0.0038186  )
        12           Sn  tau(  12) = (  0.5314157  0.0557192  0.0235600  )
        13           Sn  tau(  13) = (  0.5955552  0.0553396  1.0031540  )
        14           Sn  tau(  14) = (  0.6364296  1.0048870  0.0204336  )
        15           Sn  tau(  15) = (  0.7022199  0.0023486  1.0055280  )
        16           Sn  tau(  16) = (  0.7363071  0.0521322  0.0206784  )
        17           Sn  tau(  17) = (  0.8086427  0.0426787  0.0212560  )
        18           Sn  tau(  18) = (  0.8378909  0.9864959  0.0179036  )
        19           Sn  tau(  19) = (  0.9063174  0.9917321  0.9969120  )
        20           Sn  tau(  20) = (  0.9361226  0.0438665  0.0091201  )
        21           Sn  tau(  21) = (  0.0041913  0.1457342  0.9929920  )
        22           Sn  tau(  22) = (  0.0360685  0.0954736  0.0112787  )
        23           Sn  tau(  23) = (  0.1044242  0.0956463  0.9942380  )
        24           Sn  tau(  24) = (  0.1374682  0.1511182  1.0061940  )
        25           Sn  tau(  25) = (  0.2058917  0.1493769  0.9912380  )
        26           Sn  tau(  26) = (  0.2300099  0.0987057  0.0152874  )
        27           Sn  tau(  27) = (  0.2946927  0.1001984  0.9923220  )
        28           Sn  tau(  28) = (  0.3262798  0.1511286  0.0094671  )
        29           Sn  tau(  29) = (  0.3959337  0.1562382  0.0172615  )
        30           Sn  tau(  30) = (  0.4308476  0.1018998  0.0175373  )
        31           Sn  tau(  31) = (  0.4964489  0.1015014  0.0003007  )
        32           Sn  tau(  32) = (  0.5276302  0.1502065  0.0126711  )
        33           Sn  tau(  33) = (  0.5973622  0.1535494  0.0198412  )
        34           Sn  tau(  34) = (  0.6363565  0.1078259  0.0080613  )
        35           Sn  tau(  35) = (  0.6969676  0.0997315  0.0335860  )
        36           Sn  tau(  36) = (  0.7314908  0.1535638  0.0267588  )
        37           Sn  tau(  37) = (  0.7981481  0.1457589  0.0115101  )
        38           Sn  tau(  38) = (  0.8309600  0.0992708  0.0393328  )
        39           Sn  tau(  39) = (  0.9005661  0.0949308  0.0235914  )
        40           Sn  tau(  40) = (  0.9355052  0.1456190  0.0065937  )
        41           Sn  tau(  41) = ( -0.0000258  0.2460745  1.0002580  )
        42           Sn  tau(  42) = (  0.0371819  0.1963395  0.0067411  )
        43           Sn  tau(  43) = (  0.0999977  0.1980273  0.9858980  )
        44           Sn  tau(  44) = (  0.1340000  0.2476787  1.0074780  )
        45           Sn  tau(  45) = (  0.1988442  0.2424971  0.9882820  )
        46           Sn  tau(  46) = (  0.2307887  0.1992173  0.0169692  )
        47           Sn  tau(  47) = (  0.2971652  0.2023326  0.9928040  )
        48           Sn  tau(  48) = (  0.3346977  0.2474779  0.0099407  )
        49           Sn  tau(  49) = (  0.4004753  0.2520048  0.9932000  )
        50           Sn  tau(  50) = (  0.4311097  0.2087186  0.0205490  )
        51           Sn  tau(  51) = (  0.4956903  0.2029381  0.0063922  )
        52           Sn  tau(  52) = (  0.5355591  0.2532729  1.0011760  )
        53           Sn  tau(  53) = (  0.6020525  0.2557917 -0.0010297  )
        54           Sn  tau(  54) = (  0.6347461  0.2077480  0.0136022  )
        55           Sn  tau(  55) = (  0.7032280  0.2010739  0.9995940  )
        56           Sn  tau(  56) = (  0.7371414  0.2518804  0.0162077  )
        57           Sn  tau(  57) = (  0.8053612  0.2472269  0.0073830  )
        58           Sn  tau(  58) = (  0.8343801  0.1964477  0.0245194  )
        59           Sn  tau(  59) = (  0.9000645  0.1972678  0.0028683  )
        60           Sn  tau(  60) = (  0.9326295  0.2467970  0.0181432  )
        61           Sn  tau(  61) = ( -0.0008191  0.3505101  0.9938380  )
        62           Sn  tau(  62) = (  0.0328757  0.2985324  0.0124535  )
        63           Sn  tau(  63) = (  0.0973078  0.2957080  0.9941280  )
        64           Sn  tau(  64) = (  0.1293571  0.3485435  1.0032520  )
        65           Sn  tau(  65) = (  0.2003249  0.3521056  0.9966120  )
        66           Sn  tau(  66) = (  0.2322275  0.2967077  0.9925440  )
        67           Sn  tau(  67) = (  0.3052251  0.2976309  0.9873600  )
        68           Sn  tau(  68) = (  0.3340096  0.3420698  0.0204650  )
        69           Sn  tau(  69) = (  0.3999788  0.3496676  0.0008269  )
        70           Sn  tau(  70) = (  0.4347415  0.3008307  0.0163140  )
        71           Sn  tau(  71) = (  0.4993472  0.3055540  0.9980880  )
        72           Sn  tau(  72) = (  0.5294398  0.3563771  0.0161483  )
        73           Sn  tau(  73) = (  0.5969892  0.3504708 -0.0023959  )
        74           Sn  tau(  74) = (  0.6420298  0.3046133  0.0190216  )
        75           Sn  tau(  75) = (  0.7074974  0.3027820 -0.0026498  )
        76           Sn  tau(  76) = (  0.7335625  0.3490368  0.0289780  )
        77           Sn  tau(  77) = (  0.8024956  0.3530311  0.0196970  )
        78           Sn  tau(  78) = (  0.8381505  0.3001497  0.0222854  )
        79           Sn  tau(  79) = (  0.9027386  0.2981941  0.0023261  )
        80           Sn  tau(  80) = (  0.9335418  0.3537491  0.0143897  )
        81           Sn  tau(  81) = (  0.9963909  0.4524116 -0.0016008  )
        82           Sn  tau(  82) = (  0.0340925  0.4002768  0.0030265  )
        83           Sn  tau(  83) = (  0.1016780  0.3995870  0.9845760  )
        84           Sn  tau(  84) = (  0.1351044  0.4480485  0.0088424  )
        85           Sn  tau(  85) = (  0.2082243  0.4469615  1.0016580  )
        86           Sn  tau(  86) = (  0.2308885  0.3969198  0.0272460  )
        87           Sn  tau(  87) = (  0.2977448  0.3934472  0.0082095  )
        88           Sn  tau(  88) = (  0.3343448  0.4438687  0.0083625  )
        89           Sn  tau(  89) = (  0.4013700  0.4505345  0.0190543  )
        90           Sn  tau(  90) = (  0.4331638  0.4005605  0.0280554  )
        91           Sn  tau(  91) = (  0.4937572  0.4065628  0.9956320  )
        92           Sn  tau(  92) = (  0.5355263  0.4504232  0.0072460  )
        93           Sn  tau(  93) = (  0.6026524  0.4533960  0.9895300  )
        94           Sn  tau(  94) = (  0.6321426  0.4031557  0.0148184  )
        95           Sn  tau(  95) = (  0.7074722  0.4024158  0.0107376  )
        96           Sn  tau(  96) = (  0.7341800  0.4572462  0.0227884  )
        97           Sn  tau(  97) = (  0.7987832  0.4417603  0.0137932  )
        98           Sn  tau(  98) = (  0.8361670  0.4004470  0.0414410  )
        99           Sn  tau(  99) = (  0.8949231  0.4030706  0.0066707  )
       100           Sn  tau( 100) = (  0.9332167  0.4530555  0.0215980  )
       101           Sn  tau( 101) = (  0.0058018  0.5535383  0.0131790  )
       102           Sn  tau( 102) = (  0.0367784  0.5005784  0.0157973  )
       103           Sn  tau( 103) = (  0.1028326  0.4973262 -0.0019715  )
       104           Sn  tau( 104) = (  0.1410050  0.5486732  0.9942060  )
       105           Sn  tau( 105) = (  0.2078374  0.5447051  0.9806040  )
       106           Sn  tau( 106) = (  0.2404364  0.4999804  0.0038819  )
       107           Sn  tau( 107) = (  0.3076043  0.4986489  0.9910160  )
       108           Sn  tau( 108) = (  0.3387150  0.5427844  0.0184782  )
       109           Sn  tau( 109) = (  0.4063502  0.5510894  0.0013393  )
       110           Sn  tau( 110) = (  0.4316012  0.5056422  0.0291898  )
       111           Sn  tau( 111) = (  0.4987575  0.5017985  0.0063455  )
       112           Sn  tau( 112) = (  0.5351735  0.5524142  0.0191843  )
       113           Sn  tau( 113) = (  0.5990937  0.5473919  0.9966360  )
       114           Sn  tau( 114) = (  0.6372210  0.4992513  0.0127736  )
       115           Sn  tau( 115) = (  0.7017587  0.5008207  0.9933360  )
       116           Sn  tau( 116) = (  0.7345958  0.5522374  0.0118670  )
       117           Sn  tau( 117) = (  0.8035642  0.5441573  0.0019580  )
       118           Sn  tau( 118) = (  0.8354916  0.4926859  0.0216694  )
       119           Sn  tau( 119) = (  0.9003644  0.4985638  1.0002360  )
       120           Sn  tau( 120) = (  0.9381490  0.5506572  0.0158565  )
       121           Sn  tau( 121) = (  0.0027253  0.6523928  0.9966600  )
       122           Sn  tau( 122) = (  0.0412764  0.6074149  0.0194366  )
       123           Sn  tau( 123) = (  0.1038944  0.6013035  0.9908880  )
       124           Sn  tau( 124) = (  0.1365090  0.6491145  0.0149192  )
       125           Sn  tau( 125) = (  0.2025145  0.6455764  0.9944840  )
       126           Sn  tau( 126) = (  0.2408409  0.5941509  1.0000600  )
       127           Sn  tau( 127) = (  0.3102128  0.5987454  0.9961700  )
       128           Sn  tau( 128) = (  0.3352799  0.6490468  0.0191327  )
       129           Sn  tau( 129) = (  0.4042835  0.6491014  0.0020009  )
       130           Sn  tau( 130) = (  0.4381288  0.6020674  0.0222342  )
       131           Sn  tau( 131) = (  0.5052322  0.6037590  0.0072887  )
       132           Sn  tau( 132) = (  0.5365672  0.6545362  0.0290568  )
       133           Sn  tau( 133) = (  0.5995524  0.6553263  0.0046706  )
       134           Sn  tau( 134) = (  0.6318149  0.5994853  0.0051725  )
       135           Sn  tau( 135) = (  0.7020309  0.6048110 -0.0026437  )
       136           Sn  tau( 136) = (  0.7368767  0.6534514  0.0134955  )
       137           Sn  tau( 137) = (  0.8031484  0.6508170  0.9975000  )
       138           Sn  tau( 138) = (  0.8351841  0.5994046  0.0130237  )
       139           Sn  tau( 139) = (  0.9017683  0.5956351 -0.0047820  )
       140           Sn  tau( 140) = (  0.9307972  0.6475168  0.0097472  )
       141           Sn  tau( 141) = (  1.0026539  0.7507934  0.9964140  )
       142           Sn  tau( 142) = (  0.0347050  0.6996909  0.0165439  )
       143           Sn  tau( 143) = (  0.1005940  0.6958124  1.0000720  )
       144           Sn  tau( 144) = (  0.1308504  0.7456729  0.0145933  )
       145           Sn  tau( 145) = (  0.2015056  0.7443589  0.0115161  )
       146           Sn  tau( 146) = (  0.2327114  0.6910869  0.0181010  )
       147           Sn  tau( 147) = (  0.2994410  0.6973708 -0.0037478  )
       148           Sn  tau( 148) = (  0.3280592  0.7508458  0.0212456  )
       149           Sn  tau( 149) = (  0.3974232  0.7464783  0.0074133  )
       150           Sn  tau( 150) = (  0.4340484  0.6987240  0.0209398  )
       151           Sn  tau( 151) = (  0.5010434  0.7023909  0.0074482  )
       152           Sn  tau( 152) = (  0.5240614  0.7563963  0.0251024  )
       153           Sn  tau( 153) = (  0.5952628  0.7516599  0.0170521  )
       154           Sn  tau( 154) = (  0.6330600  0.6994268  0.0299144  )
       155           Sn  tau( 155) = (  0.6950244  0.7044120  0.0085722  )
       156           Sn  tau( 156) = (  0.7356367  0.7527534  0.0164079  )
       157           Sn  tau( 157) = (  0.7987933  0.7537072 -0.0021854  )
       158           Sn  tau( 158) = (  0.8312600  0.7024825  0.0170327  )
       159           Sn  tau( 159) = (  0.9000368  0.7021050  0.0037766  )
       160           Sn  tau( 160) = (  0.9325010  0.7534148  0.0179239  )
       161           Sn  tau( 161) = (  0.0091065  0.8542206  0.0063366  )
       162           Sn  tau( 162) = (  0.0353320  0.8012934  0.0103605  )
       163           Sn  tau( 163) = (  0.1049650  0.7995735  0.9995600  )
       164           Sn  tau( 164) = (  0.1350094  0.8525749  0.0205340  )
       165           Sn  tau( 165) = (  0.2014865  0.8541944  0.0090285  )
       166           Sn  tau( 166) = (  0.2268829  0.8000100  0.0183858  )
       167           Sn  tau( 167) = (  0.2942365  0.8010599  0.0041568  )
       168           Sn  tau( 168) = (  0.3357890  0.8486286  0.0178944  )
       169           Sn  tau( 169) = (  0.3964731  0.8563574  0.9922380  )
       170           Sn  tau( 170) = (  0.4308552  0.8025004  0.0019761  )
       171           Sn  tau( 171) = (  0.5005721  0.8024022 -0.0027418  )
       172           Sn  tau( 172) = (  0.5359220  0.8546964  0.0130144  )
       173           Sn  tau( 173) = (  0.6007747  0.8513679  0.9944480  )
       174           Sn  tau( 174) = (  0.6299801  0.8052309  0.0194803  )
       175           Sn  tau( 175) = (  0.6941045  0.7981024  0.9976220  )
       176           Sn  tau( 176) = (  0.7297039  0.8487596  0.0075608  )
       177           Sn  tau( 177) = (  0.7971021  0.8492856  0.9959640  )
       178           Sn  tau( 178) = (  0.8348287  0.8004488  0.0146189  )
       179           Sn  tau( 179) = (  0.8995101  0.7974607 -0.0067445  )
       180           Sn  tau( 180) = (  0.9365738  0.8471379  0.0126984  )
       181           Sn  tau( 181) = (  0.0069446  0.9421335 -0.0058186  )
       182           Sn  tau( 182) = (  0.0363835  0.9010603  0.0297056  )
       183           Sn  tau( 183) = (  0.1015054  0.9091361  0.0059098  )
       184           Sn  tau( 184) = (  0.1452621  0.9568948  0.0201546  )
       185           Sn  tau( 185) = (  0.2139658  0.9486465  0.0010213  )
       186           Sn  tau( 186) = (  0.2380698  0.9007810  0.0327554  )
       187           Sn  tau( 187) = (  0.2983976  0.8992094  0.0095898  )
       188           Sn  tau( 188) = (  0.3338760  0.9506589  0.0106670  )
       189           Sn  tau( 189) = (  0.4015389  0.9514185 -0.0010301  )
       190           Sn  tau( 190) = (  0.4298471  0.9004536  0.0221340  )
       191           Sn  tau( 191) = (  0.4958818  0.9037690  0.0014614  )
       192           Sn  tau( 192) = (  0.5298204  0.9548409  0.0165475  )
       193           Sn  tau( 193) = (  0.6007798  0.9560523  0.0036977  )
       194           Sn  tau( 194) = (  0.6357794  0.9026100  0.0033847  )
       195           Sn  tau( 195) = (  0.7048738  0.9022259  0.9915200  )
       196           Sn  tau( 196) = (  0.7293107  0.9500151  0.0191530  )
       197           Sn  tau( 197) = (  0.7945113  0.9445715 -0.0020304  )
       198           Sn  tau( 198) = (  0.8383672  0.8972494  0.0102789  )
       199           Sn  tau( 199) = (  0.9066753  0.8956932  0.9980400  )
       200           Sn  tau( 200) = (  0.9415161  0.9408392  0.0153804  )

     number of k points=     1  Marzari-Vanderbilt smearing, width (Ry)=  0.0200
                       cart. coord. in units 2pi/alat
        k(    1) = (   0.0000000   0.0000000   0.0000000), wk =   2.0000000

                       cryst. coord.
        k(    1) = (   0.0000000   0.0000000   0.0000000), wk =   2.0000000

     Dense  grid: 41432170 G-vectors     FFT dimensions: ( 480, 576, 625)

     Smooth grid: 14648303 G-vectors     FFT dimensions: ( 360, 400, 432)

     Dynamical RAM for                 wfc:     104.77 MB

     Dynamical RAM for     wfc (w. buffer):     104.77 MB

     Dynamical RAM for           str. fact:       1.41 MB

     Dynamical RAM for           local pot:       0.00 MB

     Dynamical RAM for          nlocal pot:     224.51 MB

     Dynamical RAM for                qrad:      19.12 MB

     Dynamical RAM for          rho,v,vnew:      16.89 MB

     Dynamical RAM for               rhoin:       5.63 MB

     Dynamical RAM for            rho*nmix:      22.58 MB

     Dynamical RAM for           G-vectors:       5.54 MB

     Dynamical RAM for          h,s,v(r/c):       5.27 MB

     Dynamical RAM for          <psi|beta>:      46.14 MB

     Dynamical RAM for                 psi:     419.08 MB

     Dynamical RAM for                hpsi:     419.08 MB

     Dynamical RAM for                spsi:     419.08 MB

     Dynamical RAM for      wfcinit/wfcrot:     298.68 MB

     Dynamical RAM for           addusdens:     544.66 MB

     Dynamical RAM for          addusforce:    1107.74 MB

     Dynamical RAM for         addusstress:     283.62 MB

     Estimated static dynamical RAM per process >     424.36 MB

     Estimated max dynamical RAM per process >       1.69 GB

     Estimated total dynamical RAM >     758.19 GB

     Initial potential from superposition of free atoms

     starting charge 2599.99167, renormalised to 2800.00000

     negative rho (up, down):  1.851E-01 0.000E+00
     Starting wfcs are 1800 atomic wfcs

     total cpu time spent up to now is      107.3 secs

     Self-consistent Calculation

     iteration #  1     ecut=    50.00 Ry     beta= 0.40
     Davidson diagonalization with overlap
     ethr =  1.00E-02,  avg # of iterations =  8.0

     negative rho (up, down):  2.837E+00 0.000E+00

     total cpu time spent up to now is      699.1 secs

     total energy              =  -31818.34314301 Ry
     Harris-Foulkes estimate   =  -31886.64384534 Ry
     estimated scf accuracy    <     276.70769232 Ry

     iteration #  2     ecut=    50.00 Ry     beta= 0.40
     Davidson diagonalization with overlap
     ethr =  9.88E-03,  avg # of iterations =  1.0

     negative rho (up, down):  1.079E+01 0.000E+00

     total cpu time spent up to now is     1054.1 secs

     total energy              =  -31742.85899176 Ry
     Harris-Foulkes estimate   =  -31824.53513591 Ry
     estimated scf accuracy    <     138.29515916 Ry

     iteration #  3     ecut=    50.00 Ry     beta= 0.40
     Davidson diagonalization with overlap
     ethr =  4.94E-03,  avg # of iterations =  3.0

     negative rho (up, down):  1.064E+01 0.000E+00

     total cpu time spent up to now is     1444.2 secs

     total energy              =  -31775.77164344 Ry
     Harris-Foulkes estimate   =  -31778.33292340 Ry
     estimated scf accuracy    <       7.18705747 Ry

     iteration #  4     ecut=    50.00 Ry     beta= 0.40
     Davidson diagonalization with overlap
     ethr =  2.57E-04,  avg # of iterations = 14.0

     negative rho (up, down):  1.146E+01 0.000E+00

     total cpu time spent up to now is     1860.3 secs

     total energy              =  -31775.23926728 Ry
     Harris-Foulkes estimate   =  -31776.62323077 Ry
     estimated scf accuracy    <       4.15782006 Ry

     iteration #  5     ecut=    50.00 Ry     beta= 0.40
     Davidson diagonalization with overlap
     ethr =  1.48E-04,  avg # of iterations =  9.0

     negative rho (up, down):  9.763E+00 0.000E+00

     total cpu time spent up to now is     2138.2 secs

     total energy              =  -31775.15069934 Ry
     Harris-Foulkes estimate   =  -31775.49272670 Ry
     estimated scf accuracy    <       1.51552530 Ry

     iteration #  6     ecut=    50.00 Ry     beta= 0.40
     Davidson diagonalization with overlap
     ethr =  5.41E-05,  avg # of iterations =  6.0

     negative rho (up, down):  7.276E+00 0.000E+00

     total cpu time spent up to now is     2360.9 secs

     total energy              =  -31774.77801107 Ry
     Harris-Foulkes estimate   =  -31775.23638976 Ry
     estimated scf accuracy    <       1.04691887 Ry

     iteration #  7     ecut=    50.00 Ry     beta= 0.40
     Davidson diagonalization with overlap
     ethr =  3.74E-05,  avg # of iterations = 15.0

     negative rho (up, down):  5.815E+00 0.000E+00

     total cpu time spent up to now is     2683.4 secs

     total energy              =  -31774.87627323 Ry
     Harris-Foulkes estimate   =  -31774.89926376 Ry
     estimated scf accuracy    <       0.97036242 Ry

     iteration #  8     ecut=    50.00 Ry     beta= 0.40
     Davidson diagonalization with overlap
     ethr =  3.47E-05,  avg # of iterations = 12.0

     negative rho (up, down):  5.091E+00 0.000E+00

     total cpu time spent up to now is     2935.1 secs

     total energy              =  -31774.47895186 Ry
     Harris-Foulkes estimate   =  -31774.88140460 Ry
     estimated scf accuracy    <       0.84020885 Ry

     iteration #  9     ecut=    50.00 Ry     beta= 0.40
     Davidson diagonalization with overlap
     c_bands:  1 eigenvalues not converged
     ethr =  3.00E-05,  avg # of iterations = 20.0

     negative rho (up, down):  4.375E+00 0.000E+00

     total cpu time spent up to now is     3242.4 secs

     total energy              =  -31774.51058627 Ry
     Harris-Foulkes estimate   =  -31774.51264903 Ry
     estimated scf accuracy    <       0.41007913 Ry

     iteration # 10     ecut=    50.00 Ry     beta= 0.40
     Davidson diagonalization with overlap
     c_bands:  5 eigenvalues not converged
     ethr =  1.46E-05,  avg # of iterations = 20.0

     negative rho (up, down):  3.787E+00 0.000E+00

     total cpu time spent up to now is     3578.3 secs

     total energy              =  -31774.46793824 Ry
     Harris-Foulkes estimate   =  -31774.52106178 Ry
     estimated scf accuracy    <       0.31257059 Ry

     iteration # 11     ecut=    50.00 Ry     beta= 0.40
     Davidson diagonalization with overlap
     c_bands:  5 eigenvalues not converged
     ethr =  1.12E-05,  avg # of iterations = 40.0

     negative rho (up, down):  4.027E+00 0.000E+00

     total cpu time spent up to now is     4057.4 secs

     total energy              =  -31774.39348587 Ry
     Harris-Foulkes estimate   =  -31774.47771575 Ry
     estimated scf accuracy    <       0.22375754 Ry

     iteration # 12     ecut=    50.00 Ry     beta= 0.40
     Davidson diagonalization with overlap
     c_bands:  4 eigenvalues not converged
     ethr =  7.99E-06,  avg # of iterations = 40.0

     negative rho (up, down):  3.204E+00 0.000E+00

     total cpu time spent up to now is     4566.1 secs

     total energy              =  -31774.37544925 Ry
     Harris-Foulkes estimate   =  -31774.39622110 Ry
     estimated scf accuracy    <       0.15212759 Ry

     iteration # 13     ecut=    50.00 Ry     beta= 0.40
     Davidson diagonalization with overlap
     c_bands:  1 eigenvalues not converged
     ethr =  5.43E-06,  avg # of iterations = 20.0

     negative rho (up, down):  3.285E+00 0.000E+00

     total cpu time spent up to now is     4841.0 secs

     total energy              =  -31774.29802153 Ry
     Harris-Foulkes estimate   =  -31774.37742338 Ry
     estimated scf accuracy    <       0.13775634 Ry

     iteration # 14     ecut=    50.00 Ry     beta= 0.40
     Davidson diagonalization with overlap
     ethr =  4.92E-06,  avg # of iterations = 51.0

     negative rho (up, down):  2.437E+00 0.000E+00

     total cpu time spent up to now is     5501.5 secs

     total energy              =  -31774.29837937 Ry
     Harris-Foulkes estimate   =  -31774.30141596 Ry
     estimated scf accuracy    <       0.06753910 Ry

     iteration # 15     ecut=    50.00 Ry     beta= 0.40
     Davidson diagonalization with overlap
     c_bands:  4 eigenvalues not converged
     ethr =  2.41E-06,  avg # of iterations = 20.0

     negative rho (up, down):  2.013E+00 0.000E+00

     total cpu time spent up to now is     5820.2 secs

     total energy              =  -31774.22727332 Ry
     Harris-Foulkes estimate   =  -31774.30040320 Ry
     estimated scf accuracy    <       0.04883021 Ry

     iteration # 16     ecut=    50.00 Ry     beta= 0.40
     Davidson diagonalization with overlap
     ethr =  1.74E-06,  avg # of iterations = 48.0

     negative rho (up, down):  1.673E+00 0.000E+00

     total cpu time spent up to now is     6549.7 secs

     total energy              =  -31774.23033237 Ry
     Harris-Foulkes estimate   =  -31774.22957526 Ry
     estimated scf accuracy    <       0.01603103 Ry

     iteration # 17     ecut=    50.00 Ry     beta= 0.40
     Davidson diagonalization with overlap
     ethr =  5.73E-07,  avg # of iterations = 32.0

     negative rho (up, down):  8.595E-01 0.000E+00

     total cpu time spent up to now is     7052.8 secs

     total energy              =  -31774.24310094 Ry
     Harris-Foulkes estimate   =  -31774.23064231 Ry
     estimated scf accuracy    <       0.00907691 Ry

     iteration # 18     ecut=    50.00 Ry     beta= 0.40
     Davidson diagonalization with overlap
     ethr =  3.24E-07,  avg # of iterations = 29.0

     negative rho (up, down):  2.168E-01 0.000E+00

     total cpu time spent up to now is     7545.4 secs

     total energy              =  -31774.24909844 Ry
     Harris-Foulkes estimate   =  -31774.24373450 Ry
     estimated scf accuracy    <       0.00320798 Ry

     iteration # 19     ecut=    50.00 Ry     beta= 0.40
     Davidson diagonalization with overlap
     ethr =  1.15E-07,  avg # of iterations = 52.0

     negative rho (up, down):  1.413E-01 0.000E+00

     total cpu time spent up to now is     8327.0 secs

     total energy              =  -31774.25041360 Ry
     Harris-Foulkes estimate   =  -31774.24940112 Ry
     estimated scf accuracy    <       0.00061158 Ry

     iteration # 20     ecut=    50.00 Ry     beta= 0.40
     Davidson diagonalization with overlap
     c_bands:  3 eigenvalues not converged
     ethr =  2.18E-08,  avg # of iterations = 20.0

     negative rho (up, down):  5.116E-02 0.000E+00

     total cpu time spent up to now is     8776.1 secs

     total energy              =  -31774.25060822 Ry
     Harris-Foulkes estimate   =  -31774.25047350 Ry
     estimated scf accuracy    <       0.00018362 Ry

     iteration # 21     ecut=    50.00 Ry     beta= 0.40
     Davidson diagonalization with overlap
     c_bands:  3 eigenvalues not converged
     ethr =  6.56E-09,  avg # of iterations = 20.0

     negative rho (up, down):  4.102E-02 0.000E+00

     total cpu time spent up to now is     9203.4 secs

     total energy              =  -31774.25061416 Ry
     Harris-Foulkes estimate   =  -31774.25062505 Ry
     estimated scf accuracy    <       0.00003758 Ry

     iteration # 22     ecut=    50.00 Ry     beta= 0.40
     Davidson diagonalization with overlap
     c_bands:  2 eigenvalues not converged
     ethr =  1.34E-09,  avg # of iterations = 20.0

     negative rho (up, down):  3.878E-02 0.000E+00

     total cpu time spent up to now is     9600.0 secs

     total energy              =  -31774.25061676 Ry
     Harris-Foulkes estimate   =  -31774.25061724 Ry
     estimated scf accuracy    <       0.00001762 Ry

     iteration # 23     ecut=    50.00 Ry     beta= 0.40
     Davidson diagonalization with overlap
     ethr =  6.29E-10,  avg # of iterations =  5.0

     negative rho (up, down):  3.708E-02 0.000E+00

     total cpu time spent up to now is    10136.2 secs

     total energy              =  -31774.25061549 Ry
     Harris-Foulkes estimate   =  -31774.25061790 Ry
     estimated scf accuracy    <       0.00000915 Ry

     iteration # 24     ecut=    50.00 Ry     beta= 0.40
     Davidson diagonalization with overlap
     ethr =  3.27E-10,  avg # of iterations =  2.0

     negative rho (up, down):  3.881E-02 0.000E+00

     total cpu time spent up to now is    10471.0 secs

     total energy              =  -31774.25060227 Ry
     Harris-Foulkes estimate   =  -31774.25061582 Ry
     estimated scf accuracy    <       0.00000484 Ry

     iteration # 25     ecut=    50.00 Ry     beta= 0.40
     Davidson diagonalization with overlap
     ethr =  1.73E-10,  avg # of iterations =  2.0

     negative rho (up, down):  3.907E-02 0.000E+00

     total cpu time spent up to now is    10763.4 secs

     total energy              =  -31774.25060187 Ry
     Harris-Foulkes estimate   =  -31774.25060254 Ry
     estimated scf accuracy    <       0.00000095 Ry

     iteration # 26     ecut=    50.00 Ry     beta= 0.40
     Davidson diagonalization with overlap
     ethr =  3.39E-11,  avg # of iterations =  2.0

     negative rho (up, down):  3.907E-02 0.000E+00

     total cpu time spent up to now is    11159.2 secs

     total energy              =  -31774.25060276 Ry
     Harris-Foulkes estimate   =  -31774.25060197 Ry
     estimated scf accuracy    <       0.00000039 Ry

     iteration # 27     ecut=    50.00 Ry     beta= 0.40
     Davidson diagonalization with overlap
     ethr =  1.40E-11,  avg # of iterations =  2.0

     negative rho (up, down):  3.923E-02 0.000E+00

     total cpu time spent up to now is    11465.3 secs

     total energy              =  -31774.25060287 Ry
     Harris-Foulkes estimate   =  -31774.25060278 Ry
     estimated scf accuracy    <       0.00000023 Ry

     iteration # 28     ecut=    50.00 Ry     beta= 0.40
     Davidson diagonalization with overlap
     ethr =  8.35E-12,  avg # of iterations =  1.0

     negative rho (up, down):  3.987E-02 0.000E+00

     total cpu time spent up to now is    11825.5 secs

     total energy              =  -31774.25060184 Ry
     Harris-Foulkes estimate   =  -31774.25060288 Ry
     estimated scf accuracy    <       0.00000013 Ry

     iteration # 29     ecut=    50.00 Ry     beta= 0.40
     Davidson diagonalization with overlap
     ethr =  4.48E-12,  avg # of iterations =  2.0

     negative rho (up, down):  4.002E-02 0.000E+00

     total cpu time spent up to now is    12180.3 secs

     total energy              =  -31774.25060171 Ry
     Harris-Foulkes estimate   =  -31774.25060185 Ry
     estimated scf accuracy    <       0.00000004 Ry

     iteration # 30     ecut=    50.00 Ry     beta= 0.40
     Davidson diagonalization with overlap
     ethr =  1.49E-12,  avg # of iterations =  1.0

     negative rho (up, down):  4.015E-02 0.000E+00

     total cpu time spent up to now is    12566.7 secs

     total energy              =  -31774.25060176 Ry
     Harris-Foulkes estimate   =  -31774.25060172 Ry
     estimated scf accuracy    <       0.00000002 Ry

     iteration # 31     ecut=    50.00 Ry     beta= 0.40
     Davidson diagonalization with overlap
     ethr =  7.39E-13,  avg # of iterations =  2.0

     negative rho (up, down):  4.036E-02 0.000E+00

     total cpu time spent up to now is    12757.1 secs

     End of self-consistent calculation

          k = 0.0000 0.0000 0.0000 (****** PWs)   bands (ev):

   -25.1063 -25.1007 -25.0717 -25.0502 -25.0433 -25.0313 -25.0249 -25.0229
   -25.0088 -25.0008 -24.9994 -24.9850 -24.9831 -24.9828 -24.9813 -24.9794
   -24.9785 -24.9773 -24.9752 -24.9710 -24.9654 -24.9652 -24.9637 -24.9602
   -24.9591 -24.9574 -24.9549 -24.9528 -24.9527 -24.9520 -24.9462 -24.9445
   -24.9442 -24.9416 -24.9395 -24.9351 -24.9335 -24.9330 -24.9312 -24.9289
   -24.9282 -24.9274 -24.9267 -24.9257 -24.9255 -24.9250 -24.9237 -24.9221
   -24.9213 -24.9210 -24.9204 -24.9195 -24.9183 -24.9174 -24.9169 -24.9156
   -24.9154 -24.9144 -24.9133 -24.9121 -24.9107 -24.9104 -24.9101 -24.9071
   -24.9067 -24.9042 -24.9040 -24.9032 -24.9027 -24.9026 -24.9016 -24.9010
   -24.9005 -24.8998 -24.8994 -24.8978 -24.8970 -24.8967 -24.8961 -24.8953
   -24.8943 -24.8933 -24.8924 -24.8897 -24.8895 -24.8880 -24.8877 -24.8869
   -24.8865 -24.8860 -24.8852 -24.8824 -24.8816 -24.8812 -24.8807 -24.8795
   -24.8791 -24.8781 -24.8777 -24.8771 -24.8763 -24.8759 -24.8747 -24.8741
   -24.8739 -24.8737 -24.8734 -24.8722 -24.8708 -24.8703 -24.8698 -24.8688
   -24.8677 -24.8676 -24.8673 -24.8666 -24.8663 -24.8660 -24.8658 -24.8651
   -24.8644 -24.8634 -24.8631 -24.8623 -24.8617 -24.8615 -24.8602 -24.8586
   -24.8582 -24.8573 -24.8571 -24.8568 -24.8544 -24.8539 -24.8524 -24.8510
   -24.8499 -24.8495 -24.8494 -24.8486 -24.8480 -24.8477 -24.8471 -24.8466
   -24.8463 -24.8452 -24.8446 -24.8441 -24.8437 -24.8432 -24.8426 -24.8423
   -24.8422 -24.8417 -24.8409 -24.8404 -24.8401 -24.8392 -24.8388 -24.8380
   -24.8374 -24.8355 -24.8346 -24.8341 -24.8339 -24.8332 -24.8327 -24.8320
   -24.8318 -24.8311 -24.8303 -24.8300 -24.8299 -24.8282 -24.8275 -24.8258
   -24.8255 -24.8251 -24.8234 -24.8233 -24.8226 -24.8223 -24.8212 -24.8209
   -24.8197 -24.8195 -24.8192 -24.8182 -24.8179 -24.8172 -24.8160 -24.8154
   -24.8142 -24.8142 -24.8129 -24.8124 -24.8120 -24.8115 -24.8106 -24.8102
   -24.8093 -24.8092 -24.8086 -24.8084 -24.8076 -24.8075 -24.8069 -24.8061
   -24.8058 -24.8053 -24.8050 -24.8042 -24.8037 -24.8029 -24.8021 -24.8019
   -24.8017 -24.8010 -24.7994 -24.7986 -24.7977 -24.7967 -24.7963 -24.7961
   -24.7960 -24.7955 -24.7950 -24.7948 -24.7941 -24.7932 -24.7923 -24.7918
   -24.7917 -24.7908 -24.7906 -24.7902 -24.7895 -24.7892 -24.7882 -24.7878
   -24.7877 -24.7871 -24.7864 -24.7857 -24.7843 -24.7839 -24.7832 -24.7828
   -24.7824 -24.7818 -24.7812 -24.7804 -24.7797 -24.7794 -24.7793 -24.7786
   -24.7783 -24.7778 -24.7761 -24.7760 -24.7757 -24.7753 -24.7742 -24.7735
   -24.7724 -24.7720 -24.7717 -24.7713 -24.7704 -24.7697 -24.7689 -24.7680
   -24.7676 -24.7670 -24.7661 -24.7652 -24.7644 -24.7640 -24.7633 -24.7628
   -24.7607 -24.7603 -24.7599 -24.7594 -24.7591 -24.7581 -24.7576 -24.7569
   -24.7565 -24.7561 -24.7558 -24.7550 -24.7545 -24.7538 -24.7534 -24.7523
   -24.7512 -24.7511 -24.7506 -24.7505 -24.7497 -24.7495 -24.7487 -24.7481
   -24.7478 -24.7473 -24.7470 -24.7461 -24.7454 -24.7446 -24.7440 -24.7431
   -24.7428 -24.7423 -24.7418 -24.7410 -24.7406 -24.7405 -24.7388 -24.7384
   -24.7368 -24.7363 -24.7357 -24.7346 -24.7338 -24.7336 -24.7328 -24.7324
   -24.7318 -24.7307 -24.7296 -24.7295 -24.7294 -24.7288 -24.7283 -24.7271
   -24.7266 -24.7257 -24.7249 -24.7239 -24.7237 -24.7229 -24.7222 -24.7221
   -24.7211 -24.7206 -24.7198 -24.7190 -24.7183 -24.7180 -24.7170 -24.7165
   -24.7163 -24.7161 -24.7157 -24.7147 -24.7143 -24.7141 -24.7139 -24.7130
   -24.7124 -24.7120 -24.7116 -24.7113 -24.7106 -24.7102 -24.7096 -24.7090
   -24.7089 -24.7082 -24.7076 -24.7068 -24.7067 -24.7059 -24.7058 -24.7053
   -24.7051 -24.7048 -24.7041 -24.7038 -24.7035 -24.7021 -24.7015 -24.7010
   -24.7000 -24.6996 -24.6993 -24.6988 -24.6985 -24.6977 -24.6975 -24.6965
   -24.6962 -24.6953 -24.6949 -24.6947 -24.6943 -24.6939 -24.6926 -24.6924
   -24.6921 -24.6917 -24.6911 -24.6901 -24.6898 -24.6895 -24.6893 -24.6886
   -24.6879 -24.6878 -24.6864 -24.6860 -24.6853 -24.6848 -24.6843 -24.6834
   -24.6830 -24.6825 -24.6816 -24.6813 -24.6807 -24.6801 -24.6799 -24.6792
   -24.6789 -24.6781 -24.6766 -24.6756 -24.6753 -24.6740 -24.6735 -24.6729
   -24.6728 -24.6720 -24.6717 -24.6710 -24.6701 -24.6697 -24.6689 -24.6685
   -24.6683 -24.6673 -24.6667 -24.6661 -24.6658 -24.6649 -24.6645 -24.6639
   -24.6637 -24.6628 -24.6616 -24.6613 -24.6602 -24.6595 -24.6592 -24.6589
   -24.6575 -24.6573 -24.6566 -24.6559 -24.6551 -24.6541 -24.6535 -24.6530
   -24.6522 -24.6512 -24.6504 -24.6499 -24.6493 -24.6485 -24.6483 -24.6475
   -24.6473 -24.6465 -24.6457 -24.6453 -24.6449 -24.6436 -24.6431 -24.6426
   -24.6421 -24.6417 -24.6413 -24.6405 -24.6399 -24.6385 -24.6379 -24.6377
   -24.6373 -24.6369 -24.6362 -24.6357 -24.6352 -24.6349 -24.6339 -24.6333
   -24.6324 -24.6315 -24.6303 -24.6301 -24.6296 -24.6293 -24.6281 -24.6278
   -24.6270 -24.6259 -24.6252 -24.6251 -24.6244 -24.6241 -24.6236 -24.6228
   -24.6217 -24.6212 -24.6207 -24.6205 -24.6198 -24.6195 -24.6188 -24.6182
   -24.6178 -24.6172 -24.6168 -24.6161 -24.6160 -24.6152 -24.6148 -24.6142
   -24.6135 -24.6130 -24.6122 -24.6118 -24.6112 -24.6108 -24.6097 -24.6091
   -24.6085 -24.6080 -24.6080 -24.6072 -24.6065 -24.6060 -24.6052 -24.6048
   -24.6044 -24.6037 -24.6036 -24.6030 -24.6026 -24.6020 -24.6009 -24.6003
   -24.5999 -24.5996 -24.5986 -24.5979 -24.5975 -24.5972 -24.5960 -24.5956
   -24.5954 -24.5948 -24.5944 -24.5937 -24.5932 -24.5924 -24.5918 -24.5913
   -24.5910 -24.5905 -24.5901 -24.5896 -24.5889 -24.5888 -24.5882 -24.5871
   -24.5862 -24.5862 -24.5860 -24.5854 -24.5844 -24.5839 -24.5839 -24.5835
   -24.5831 -24.5821 -24.5817 -24.5814 -24.5806 -24.5802 -24.5797 -24.5794
   -24.5787 -24.5777 -24.5776 -24.5772 -24.5767 -24.5763 -24.5760 -24.5753
   -24.5749 -24.5740 -24.5735 -24.5733 -24.5729 -24.5729 -24.5724 -24.5716
   -24.5712 -24.5707 -24.5701 -24.5699 -24.5692 -24.5684 -24.5684 -24.5680
   -24.5675 -24.5668 -24.5659 -24.5656 -24.5651 -24.5645 -24.5642 -24.5636
   -24.5632 -24.5629 -24.5623 -24.5619 -24.5616 -24.5610 -24.5608 -24.5606
   -24.5600 -24.5598 -24.5590 -24.5583 -24.5576 -24.5575 -24.5570 -24.5568
   -24.5566 -24.5559 -24.5556 -24.5551 -24.5545 -24.5536 -24.5532 -24.5530
   -24.5524 -24.5521 -24.5511 -24.5509 -24.5507 -24.5503 -24.5496 -24.5491
   -24.5485 -24.5481 -24.5478 -24.5473 -24.5471 -24.5466 -24.5463 -24.5461
   -24.5455 -24.5448 -24.5446 -24.5442 -24.5441 -24.5432 -24.5428 -24.5424
   -24.5420 -24.5413 -24.5410 -24.5408 -24.5400 -24.5397 -24.5392 -24.5382
   -24.5379 -24.5377 -24.5371 -24.5365 -24.5361 -24.5357 -24.5355 -24.5349
   -24.5344 -24.5339 -24.5336 -24.5329 -24.5324 -24.5322 -24.5320 -24.5312
   -24.5311 -24.5305 -24.5304 -24.5297 -24.5294 -24.5289 -24.5286 -24.5280
   -24.5273 -24.5269 -24.5268 -24.5264 -24.5262 -24.5259 -24.5253 -24.5248
   -24.5245 -24.5244 -24.5240 -24.5236 -24.5230 -24.5226 -24.5220 -24.5215
   -24.5212 -24.5208 -24.5200 -24.5196 -24.5190 -24.5187 -24.5179 -24.5177
   -24.5172 -24.5169 -24.5166 -24.5159 -24.5155 -24.5150 -24.5147 -24.5140
   -24.5138 -24.5132 -24.5129 -24.5125 -24.5121 -24.5110 -24.5100 -24.5098
   -24.5094 -24.5090 -24.5087 -24.5085 -24.5082 -24.5075 -24.5071 -24.5066
   -24.5062 -24.5057 -24.5054 -24.5044 -24.5043 -24.5038 -24.5030 -24.5027
   -24.5022 -24.5020 -24.5013 -24.5002 -24.5001 -24.4991 -24.4990 -24.4985
   -24.4975 -24.4971 -24.4967 -24.4959 -24.4955 -24.4946 -24.4942 -24.4941
   -24.4936 -24.4932 -24.4919 -24.4917 -24.4912 -24.4905 -24.4903 -24.4893
   -24.4884 -24.4880 -24.4875 -24.4868 -24.4863 -24.4858 -24.4852 -24.4847
   -24.4841 -24.4834 -24.4829 -24.4825 -24.4815 -24.4811 -24.4808 -24.4802
   -24.4788 -24.4785 -24.4778 -24.4768 -24.4767 -24.4756 -24.4752 -24.4742
   -24.4733 -24.4730 -24.4726 -24.4716 -24.4716 -24.4698 -24.4695 -24.4683
   -24.4680 -24.4670 -24.4661 -24.4659 -24.4645 -24.4636 -24.4632 -24.4627
   -24.4623 -24.4619 -24.4613 -24.4604 -24.4596 -24.4590 -24.4580 -24.4578
   -24.4567 -24.4558 -24.4548 -24.4541 -24.4529 -24.4527 -24.4513 -24.4506
   -24.4505 -24.4493 -24.4486 -24.4480 -24.4473 -24.4454 -24.4452 -24.4448
   -24.4437 -24.4422 -24.4418 -24.4412 -24.4410 -24.4399 -24.4391 -24.4386
   -24.4381 -24.4376 -24.4366 -24.4355 -24.4351 -24.4347 -24.4338 -24.4336
   -24.4321 -24.4305 -24.4302 -24.4294 -24.4281 -24.4273 -24.4267 -24.4258
   -24.4250 -24.4242 -24.4241 -24.4225 -24.4214 -24.4210 -24.4190 -24.4187
   -24.4185 -24.4175 -24.4159 -24.4155 -24.4148 -24.4139 -24.4133 -24.4130
   -24.4119 -24.4113 -24.4107 -24.4093 -24.4083 -24.4081 -24.4076 -24.4064
   -24.4057 -24.4045 -24.4033 -24.4030 -24.4019 -24.4016 -24.4002 -24.3992
   -24.3987 -24.3976 -24.3968 -24.3962 -24.3950 -24.3944 -24.3933 -24.3928
   -24.3921 -24.3913 -24.3904 -24.3899 -24.3887 -24.3885 -24.3868 -24.3861
   -24.3842 -24.3838 -24.3831 -24.3819 -24.3817 -24.3812 -24.3806 -24.3775
   -24.3768 -24.3759 -24.3757 -24.3749 -24.3729 -24.3721 -24.3718 -24.3712
   -24.3700 -24.3700 -24.3682 -24.3677 -24.3670 -24.3658 -24.3649 -24.3640
   -24.3630 -24.3621 -24.3613 -24.3596 -24.3582 -24.3581 -24.3571 -24.3566
   -24.3560 -24.3553 -24.3540 -24.3531 -24.3515 -24.3500 -24.3494 -24.3482
   -24.3470 -24.3461 -24.3458 -24.3433 -24.3414 -24.3408 -24.3403 -24.3395
   -24.3385 -24.3366 -24.3349 -24.3342 -24.3302 -24.3301 -24.3294 -24.3279
   -24.3254 -24.3234 -24.3218 -24.3212 -24.3201 -24.3192 -24.3174 -24.3160
   -24.3150 -24.3138 -24.3133 -24.3117 -24.3109 -24.3089 -24.3073 -24.3059
   -24.3027 -24.2994 -24.2981 -24.2979 -24.2970 -24.2877 -24.2755 -24.2723
   -12.9810 -12.9476 -12.9098 -12.8833 -12.8692 -12.8448 -12.8308 -12.8024
   -12.7812 -12.7427 -12.6869 -12.6721 -12.6543 -12.6414 -12.6090 -12.5789
   -12.5664 -12.5461 -12.5265 -12.5109 -12.5000 -12.4009 -12.3932 -12.3687
   -12.3595 -12.3349 -12.3099 -12.2979 -12.2867 -12.2482 -12.2412 -12.1791
   -12.1641 -12.1489 -12.1330 -12.0986 -12.0815 -12.0569 -12.0392 -12.0211
   -12.0038 -11.9853 -11.9561 -11.9224 -11.9011 -11.8873 -11.8630 -11.8390
   -11.8340 -11.8094 -11.7984 -11.7300 -11.7146 -11.6675 -11.6593 -11.6504
   -11.6326 -11.6142 -11.6060 -11.5925 -11.5602 -11.5576 -11.5443 -11.5348
   -11.5170 -11.4671 -11.4340 -11.4067 -11.3994 -11.3884 -11.3860 -11.3680
   -11.3563 -11.3449 -11.3248 -11.3138 -11.2932 -11.2810 -11.2740 -11.2662
   -11.2531 -11.2411 -11.2240 -11.2122 -11.2057 -11.1689 -11.1144 -11.0895
   -11.0743 -11.0560 -11.0275 -10.9875 -10.9748 -10.9556 -10.9278 -10.9103
   -10.8141 -10.7606 -10.6238 -10.6128 -10.3217 -10.2934 -10.1506 -10.1136
   -10.0330 -10.0114  -9.9751  -9.9583  -9.9476  -9.9347  -9.8590  -9.8417
    -9.8042  -9.7837  -9.7752  -9.7680  -9.7493  -9.7350  -9.7300  -9.7120
    -9.7049  -9.6916  -9.6711  -9.6255  -9.6172  -9.6000  -9.5924  -9.5530
    -9.5241  -9.5023  -9.4872  -9.4598  -9.4469  -9.4439  -9.4315  -9.3313
    -9.3205  -9.3057  -9.2874  -9.2828  -9.2564  -9.2482  -9.2192  -9.2128
    -9.2090  -9.1952  -9.1490  -9.1411  -9.1256  -8.9149  -8.8715  -8.8626
    -8.8600  -8.7224  -8.7194  -8.7064  -8.6972  -8.6827  -8.6568  -8.6014
    -8.5869  -8.5583  -8.5463  -8.4243  -8.4093  -8.3898  -8.3650  -8.3090
    -8.2916  -8.1336  -8.1126  -8.0858  -8.0807  -7.9672  -7.9531  -7.9244
    -7.8925  -7.8680  -7.8509  -7.5389  -7.5343  -7.4977  -7.4639  -7.4400
    -7.3815  -7.3529  -7.3479  -7.3060  -7.2793  -7.1628  -7.1171  -6.9738
    -6.9139  -6.8916  -6.8287  -6.7821  -6.7356  -6.6699  -6.6077  -6.5067
    -6.3542  -6.3500  -6.3077  -6.2845  -6.1833  -6.1776  -6.1554  -6.1425
    -6.0966  -6.0714  -6.0689  -6.0554  -6.0337  -6.0295  -5.9873  -5.9567
    -5.9318  -5.9145  -5.8989  -5.8829  -5.7699  -5.7587  -5.7151  -5.6902
    -5.6432  -5.6382  -5.6058  -5.5975  -5.5803  -5.5736  -5.5367  -5.5298
    -5.5202  -5.5118  -5.4931  -5.4689  -5.4672  -5.4489  -5.4320  -5.4139
    -5.4007  -5.3826  -5.3707  -5.3291  -5.3058  -5.2946  -5.2799  -5.2743
    -5.2482  -5.2353  -5.2313  -5.2106  -5.2015  -5.1895  -5.1834  -5.1736
    -5.1504  -5.1413  -5.1276  -5.1256  -5.1156  -5.1140  -5.1004  -5.0979
    -5.0882  -5.0787  -5.0721  -5.0681  -5.0545  -5.0499  -5.0465  -5.0324
    -5.0231  -5.0188  -5.0062  -5.0031  -4.9974  -4.9926  -4.9811  -4.9783
    -4.9720  -4.9639  -4.9499  -4.9454  -4.9383  -4.9296  -4.9220  -4.9165
    -4.9115  -4.9022  -4.8904  -4.8831  -4.8812  -4.8646  -4.8637  -4.8528
    -4.8502  -4.8328  -4.8317  -4.8205  -4.8156  -4.8011  -4.7934  -4.7845
    -4.7750  -4.7686  -4.7592  -4.7557  -4.7393  -4.7305  -4.7277  -4.7108
    -4.7084  -4.7051  -4.6888  -4.6813  -4.6735  -4.6686  -4.6604  -4.6491
    -4.6411  -4.6197  -4.6159  -4.6119  -4.5997  -4.5945  -4.5858  -4.5752
    -4.5665  -4.5534  -4.5464  -4.5384  -4.5358  -4.5178  -4.5091  -4.5024
    -4.4898  -4.4817  -4.4684  -4.4643  -4.4517  -4.4455  -4.4351  -4.4147
    -4.3983  -4.3847  -4.3726  -4.3685  -4.3614  -4.3543  -4.3505  -4.3310
    -4.3283  -4.3053  -4.2983  -4.2923  -4.2827  -4.2741  -4.2515  -4.2454
    -4.2338  -4.2203  -4.1980  -4.1900  -4.1792  -4.1665  -4.1550  -4.1396
    -4.1364  -4.1279  -4.1177  -4.0937  -4.0692  -4.0466  -4.0403  -4.0295
    -4.0177  -4.0085  -3.9839  -3.9734  -3.9631  -3.9516  -3.9144  -3.9037
    -3.8933  -3.8860  -3.8646  -3.8471  -3.8171  -3.7911  -3.7778  -3.7565
    -3.7264  -3.7193  -3.7098  -3.6850  -3.6436  -3.6101  -3.5532  -3.5365
    -3.4259  -3.3709  -3.3510  -3.2710  -3.2342  -3.1949  -3.1768  -3.1510
    -3.1312  -3.1250  -3.1043  -3.0873  -3.0686  -3.0254  -3.0100  -2.9894
    -2.9728  -2.9666  -2.9418  -2.9367  -2.9274  -2.9147  -2.8845  -2.8777
    -2.8661  -2.8632  -2.8469  -2.8434  -2.8180  -2.8067  -2.7955  -2.7722
    -2.7574  -2.7465  -2.7280  -2.7088  -2.6918  -2.6835  -2.6820  -2.6653
    -2.6435  -2.6345  -2.6051  -2.5866  -2.5647  -2.5564  -2.5484  -2.5278
    -2.5098  -2.4982  -2.4827  -2.4760  -2.4662  -2.4299  -2.4236  -2.4026
    -2.3799  -2.3576  -2.3396  -2.3112  -2.3049  -2.2932  -2.2720  -2.2649
    -2.2517  -2.2309  -2.2261  -2.2039  -2.1920  -2.1661  -2.1645  -2.1547
    -2.1283  -2.1157  -2.1026  -2.0942  -2.0894  -2.0713  -2.0561  -2.0443
    -2.0254  -2.0088  -1.9956  -1.9738  -1.9681  -1.9424  -1.9242  -1.9099
    -1.9032  -1.8996  -1.8882  -1.8758  -1.8676  -1.8535  -1.8408  -1.8345
    -1.8227  -1.8073  -1.7926  -1.7776  -1.7601  -1.7582  -1.7437  -1.7336
    -1.7183  -1.6997  -1.6934  -1.6843  -1.6758  -1.6618  -1.6599  -1.6331
    -1.6186  -1.6095  -1.5877  -1.5840  -1.5685  -1.5497  -1.5369  -1.5335
    -1.5100  -1.5021  -1.4899  -1.4770  -1.4612  -1.4582  -1.4460  -1.4284
    -1.4219  -1.4119  -1.4043  -1.3836  -1.3798  -1.3650  -1.3567  -1.3501
    -1.3376  -1.3292  -1.3175  -1.3000  -1.2982  -1.2835  -1.2743  -1.2579
    -1.2476  -1.2218  -1.2172  -1.2064  -1.1923  -1.1776  -1.1653  -1.1414
    -1.1302  -1.1218  -1.1110  -1.0964  -1.0809  -1.0548  -1.0443  -1.0316
    -1.0034  -0.9966  -0.9739  -0.9431  -0.9399  -0.8774  -0.8669  -0.8460
    -0.8205  -0.7954  -0.7738  -0.7577  -0.7143  -0.7014  -0.5699  -0.5339
    -0.5161  -0.4873  -0.4749  -0.4675  -0.4271  -0.4150  -0.4085  -0.3858
    -0.3756  -0.3734  -0.3415  -0.3308  -0.3284  -0.3238  -0.3047  -0.2953
    -0.2919  -0.2804  -0.2671  -0.2535  -0.2440  -0.2301  -0.2211  -0.1971
    -0.1892  -0.1806  -0.1606  -0.1435  -0.1234  -0.1163  -0.0954  -0.0571
    -0.0285  -0.0163  -0.0057   0.0088   0.0331   0.0349   0.0402   0.0516
     0.0734   0.0813   0.0888   0.1135   0.1152   0.1316   0.1461   0.1514
     0.1663   0.1793   0.1932   0.2037   0.2176   0.2376   0.2540   0.2644
     0.2720   0.2766   0.3053   0.3139   0.3246   0.3350   0.3465   0.3590
     0.3722   0.3849   0.3937   0.4014   0.4087   0.4350   0.4391   0.4420
     0.4525   0.4681   0.4796   0.4869   0.4950   0.5006   0.5050   0.5114
     0.5214   0.5302   0.5383   0.5496   0.5554   0.5624   0.5641   0.5689
     0.5749   0.5803   0.5886   0.5930   0.5985   0.6022   0.6145   0.6175
     0.6265   0.6309   0.6331   0.6369   0.6404   0.6427   0.6483   0.6611

     occupation numbers 
     1.0000   1.0000   1.0000   1.0000   1.0000   1.0000   1.0000   1.0000
     1.0000   1.0000   1.0000   1.0000   1.0000   1.0000   1.0000   1.0000
     1.0000   1.0000   1.0000   1.0000   1.0000   1.0000   1.0000   1.0000
     1.0000   1.0000   1.0000   1.0000   1.0000   1.0000   1.0000   1.0000
     1.0000   1.0000   1.0000   1.0000   1.0000   1.0000   1.0000   1.0000
     1.0000   1.0000   1.0000   1.0000   1.0000   1.0000   1.0000   1.0000
     1.0000   1.0000   1.0000   1.0000   1.0000   1.0000   1.0000   1.0000
     1.0000   1.0000   1.0000   1.0000   1.0000   1.0000   1.0000   1.0000
     1.0000   1.0000   1.0000   1.0000   1.0000   1.0000   1.0000   1.0000
     1.0000   1.0000   1.0000   1.0000   1.0000   1.0000   1.0000   1.0000
     1.0000   1.0000   1.0000   1.0000   1.0000   1.0000   1.0000   1.0000
     1.0000   1.0000   1.0000   1.0000   1.0000   1.0000   1.0000   1.0000
     1.0000   1.0000   1.0000   1.0000   1.0000   1.0000   1.0000   1.0000
     1.0000   1.0000   1.0000   1.0000   1.0000   1.0000   1.0000   1.0000
     1.0000   1.0000   1.0000   1.0000   1.0000   1.0000   1.0000   1.0000
     1.0000   1.0000   1.0000   1.0000   1.0000   1.0000   1.0000   1.0000
     1.0000   1.0000   1.0000   1.0000   1.0000   1.0000   1.0000   1.0000
     1.0000   1.0000   1.0000   1.0000   1.0000   1.0000   1.0000   1.0000
     1.0000   1.0000   1.0000   1.0000   1.0000   1.0000   1.0000   1.0000
     1.0000   1.0000   1.0000   1.0000   1.0000   1.0000   1.0000   1.0000
     1.0000   1.0000   1.0000   1.0000   1.0000   1.0000   1.0000   1.0000
     1.0000   1.0000   1.0000   1.0000   1.0000   1.0000   1.0000   1.0000
     1.0000   1.0000   1.0000   1.0000   1.0000   1.0000   1.0000   1.0000
     1.0000   1.0000   1.0000   1.0000   1.0000   1.0000   1.0000   1.0000
     1.0000   1.0000   1.0000   1.0000   1.0000   1.0000   1.0000   1.0000
     1.0000   1.0000   1.0000   1.0000   1.0000   1.0000   1.0000   1.0000
     1.0000   1.0000   1.0000   1.0000   1.0000   1.0000   1.0000   1.0000
     1.0000   1.0000   1.0000   1.0000   1.0000   1.0000   1.0000   1.0000
     1.0000   1.0000   1.0000   1.0000   1.0000   1.0000   1.0000   1.0000
     1.0000   1.0000   1.0000   1.0000   1.0000   1.0000   1.0000   1.0000
     1.0000   1.0000   1.0000   1.0000   1.0000   1.0000   1.0000   1.0000
     1.0000   1.0000   1.0000   1.0000   1.0000   1.0000   1.0000   1.0000
     1.0000   1.0000   1.0000   1.0000   1.0000   1.0000   1.0000   1.0000
     1.0000   1.0000   1.0000   1.0000   1.0000   1.0000   1.0000   1.0000
     1.0000   1.0000   1.0000   1.0000   1.0000   1.0000   1.0000   1.0000
     1.0000   1.0000   1.0000   1.0000   1.0000   1.0000   1.0000   1.0000
     1.0000   1.0000   1.0000   1.0000   1.0000   1.0000   1.0000   1.0000
     1.0000   1.0000   1.0000   1.0000   1.0000   1.0000   1.0000   1.0000
     1.0000   1.0000   1.0000   1.0000   1.0000   1.0000   1.0000   1.0000
     1.0000   1.0000   1.0000   1.0000   1.0000   1.0000   1.0000   1.0000
     1.0000   1.0000   1.0000   1.0000   1.0000   1.0000   1.0000   1.0000
     1.0000   1.0000   1.0000   1.0000   1.0000   1.0000   1.0000   1.0000
     1.0000   1.0000   1.0000   1.0000   1.0000   1.0000   1.0000   1.0000
     1.0000   1.0000   1.0000   1.0000   1.0000   1.0000   1.0000   1.0000
     1.0000   1.0000   1.0000   1.0000   1.0000   1.0000   1.0000   1.0000
     1.0000   1.0000   1.0000   1.0000   1.0000   1.0000   1.0000   1.0000
     1.0000   1.0000   1.0000   1.0000   1.0000   1.0000   1.0000   1.0000
     1.0000   1.0000   1.0000   1.0000   1.0000   1.0000   1.0000   1.0000
     1.0000   1.0000   1.0000   1.0000   1.0000   1.0000   1.0000   1.0000
     1.0000   1.0000   1.0000   1.0000   1.0000   1.0000   1.0000   1.0000
     1.0000   1.0000   1.0000   1.0000   1.0000   1.0000   1.0000   1.0000
     1.0000   1.0000   1.0000   1.0000   1.0000   1.0000   1.0000   1.0000
     1.0000   1.0000   1.0000   1.0000   1.0000   1.0000   1.0000   1.0000
     1.0000   1.0000   1.0000   1.0000   1.0000   1.0000   1.0000   1.0000
     1.0000   1.0000   1.0000   1.0000   1.0000   1.0000   1.0000   1.0000
     1.0000   1.0000   1.0000   1.0000   1.0000   1.0000   1.0000   1.0000
     1.0000   1.0000   1.0000   1.0000   1.0000   1.0000   1.0000   1.0000
     1.0000   1.0000   1.0000   1.0000   1.0000   1.0000   1.0000   1.0000
     1.0000   1.0000   1.0000   1.0000   1.0000   1.0000   1.0000   1.0000
     1.0000   1.0000   1.0000   1.0000   1.0000   1.0000   1.0000   1.0000
     1.0000   1.0000   1.0000   1.0000   1.0000   1.0000   1.0000   1.0000
     1.0000   1.0000   1.0000   1.0000   1.0000   1.0000   1.0000   1.0000
     1.0000   1.0000   1.0000   1.0000   1.0000   1.0000   1.0000   1.0000
     1.0000   1.0000   1.0000   1.0000   1.0000   1.0000   1.0000   1.0000
     1.0000   1.0000   1.0000   1.0000   1.0000   1.0000   1.0000   1.0000
     1.0000   1.0000   1.0000   1.0000   1.0000   1.0000   1.0000   1.0000
     1.0000   1.0000   1.0000   1.0000   1.0000   1.0000   1.0000   1.0000
     1.0000   1.0000   1.0000   1.0000   1.0000   1.0000   1.0000   1.0000
     1.0000   1.0000   1.0000   1.0000   1.0000   1.0000   1.0000   1.0000
     1.0000   1.0000   1.0000   1.0000   1.0000   1.0000   1.0000   1.0000
     1.0000   1.0000   1.0000   1.0000   1.0000   1.0000   1.0000   1.0000
     1.0000   1.0000   1.0000   1.0000   1.0000   1.0000   1.0000   1.0000
     1.0000   1.0000   1.0000   1.0000   1.0000   1.0000   1.0000   1.0000
     1.0000   1.0000   1.0000   1.0000   1.0000   1.0000   1.0000   1.0000
     1.0000   1.0000   1.0000   1.0000   1.0000   1.0000   1.0000   1.0000
     1.0000   1.0000   1.0000   1.0000   1.0000   1.0000   1.0000   1.0000
     1.0000   1.0000   1.0000   1.0000   1.0000   1.0000   1.0000   1.0000
     1.0000   1.0000   1.0000   1.0000   1.0000   1.0000   1.0000   1.0000
     1.0000   1.0000   1.0000   1.0000   1.0000   1.0000   1.0000   1.0000
     1.0000   1.0000   1.0000   1.0000   1.0000   1.0000   1.0000   1.0000
     1.0000   1.0000   1.0000   1.0000   1.0000   1.0000   1.0000   1.0000
     1.0000   1.0000   1.0000   1.0000   1.0000   1.0000   1.0000   1.0000
     1.0000   1.0000   1.0000   1.0000   1.0000   1.0000   1.0000   1.0000
     1.0000   1.0000   1.0000   1.0000   1.0000   1.0000   1.0000   1.0000
     1.0000   1.0000   1.0000   1.0000   1.0000   1.0000   1.0000   1.0000
     1.0000   1.0000   1.0000   1.0000   1.0000   1.0000   1.0000   1.0000
     1.0000   1.0000   1.0000   1.0000   1.0000   1.0000   1.0000   1.0000
     1.0000   1.0000   1.0000   1.0000   1.0000   1.0000   1.0000   1.0000
     1.0000   1.0000   1.0000   1.0000   1.0000   1.0000   1.0000   1.0000
     1.0000   1.0000   1.0000   1.0000   1.0000   1.0000   1.0000   1.0000
     1.0000   1.0000   1.0000   1.0000   1.0000   1.0000   1.0000   1.0000
     1.0000   1.0000   1.0000   1.0000   1.0000   1.0000   1.0000   1.0000
     1.0000   1.0000   1.0000   1.0000   1.0000   1.0000   1.0000   1.0000
     1.0000   1.0000   1.0000   1.0000   1.0000   1.0000   1.0000   1.0000
     1.0000   1.0000   1.0000   1.0000   1.0000   1.0000   1.0000   1.0000
     1.0000   1.0000   1.0000   1.0000   1.0000   1.0000   1.0000   1.0000
     1.0000   1.0000   1.0000   1.0000   1.0000   1.0000   1.0000   1.0000
     1.0000   1.0000   1.0000   1.0000   1.0000   1.0000   1.0000   1.0000
     1.0000   1.0000   1.0000   1.0000   1.0000   1.0000   1.0000   1.0000
     1.0000   1.0000   1.0000   1.0000   1.0000   1.0000   1.0000   1.0000
     1.0000   1.0000   1.0000   1.0000   1.0000   1.0000   1.0000   1.0000
     1.0000   1.0000   1.0000   1.0000   1.0000   1.0000   1.0000   1.0000
     1.0000   1.0000   1.0000   1.0000   1.0000   1.0000   1.0000   1.0000
     1.0000   1.0000   1.0000   1.0000   1.0000   1.0000   1.0000   1.0000
     1.0000   1.0000   1.0000   1.0000   1.0000   1.0000   1.0000   1.0000
     1.0000   1.0000   1.0000   1.0000   1.0000   1.0000   1.0000   1.0000
     1.0000   1.0000   1.0000   1.0000   1.0000   1.0000   1.0000   1.0000
     1.0000   1.0000   1.0000   1.0000   1.0000   1.0000   1.0000   1.0000
     1.0000   1.0000   1.0000   1.0000   1.0000   1.0000   1.0000   1.0000
     1.0000   1.0000   1.0000   1.0000   1.0000   1.0000   1.0000   1.0000
     1.0000   1.0000   1.0000   1.0000   1.0000   1.0000   1.0000   1.0000
     1.0000   1.0000   1.0000   1.0000   1.0000   1.0000   1.0000   1.0000
     1.0000   1.0000   1.0000   1.0000   1.0000   1.0000   1.0000   1.0000
     1.0000   1.0000   1.0000   1.0000   1.0000   1.0000   1.0000   1.0000
     1.0000   1.0000   1.0000   1.0000   1.0000   1.0000   1.0000   1.0000
     1.0000   1.0000   1.0000   1.0000   1.0000   1.0000   1.0000   1.0000
     1.0000   1.0000   1.0000   1.0000   1.0000   1.0000   1.0000   1.0000
     1.0000   1.0000   1.0000   1.0000   1.0000   1.0000   1.0000   1.0000
     1.0000   1.0000   1.0000   1.0000   1.0000   1.0000   1.0000   1.0000
     1.0000   1.0000   1.0000   1.0000   1.0000   1.0000   1.0000   1.0000
     1.0000   1.0000   1.0000   1.0000   1.0000   1.0000   1.0000   1.0000
     1.0000   1.0000   1.0000   1.0000   1.0000   1.0000   1.0000   1.0000
     1.0000   1.0000   1.0000   1.0000   1.0000   1.0000   1.0000   1.0000
     1.0000   1.0000   1.0000   1.0000   1.0000   1.0000   1.0000   1.0000
     1.0000   1.0000   1.0000   1.0000   1.0000   1.0000   1.0000   1.0000
     1.0000   1.0000   1.0000   1.0000   1.0000   1.0000   1.0000   1.0000
     1.0000   1.0000   1.0000   1.0000   1.0000   1.0000   1.0000   1.0000
     1.0000   1.0000   1.0000   1.0000   1.0000   1.0000   1.0000   1.0000
     1.0000   1.0000   1.0000   1.0000   1.0000   1.0000   1.0000   1.0000
     1.0000   1.0000   1.0000   1.0000   1.0000   1.0000   1.0000   1.0000
     1.0000   1.0000   1.0000   1.0000   1.0000   1.0000   1.0000   1.0000
     1.0000   1.0000   1.0000   1.0000   1.0000   1.0000   1.0000   1.0000
     1.0000   1.0000   1.0000   1.0000   1.0000   1.0000   1.0000   1.0000
     1.0000   1.0000   1.0000   1.0000   1.0000   1.0000   1.0000   1.0000
     1.0000   1.0000   1.0000   1.0000   1.0000   1.0000   1.0000   1.0000
     1.0000   1.0000   1.0000   1.0000   1.0000   1.0000   1.0000   1.0000
     1.0000   1.0000   1.0000   1.0000   1.0000   1.0000   1.0000   1.0000
     1.0000   1.0000   1.0000   1.0000   1.0000   1.0000   1.0000   1.0000
     1.0000   1.0000   1.0000   1.0000   1.0000   1.0000   1.0000   1.0000
     1.0000   1.0000   1.0000   1.0000   1.0000   1.0000   1.0000   1.0000
     1.0000   1.0000   1.0000   1.0000   1.0000   1.0000   1.0000   1.0000
     1.0000   1.0000   1.0000   1.0000   1.0000   1.0000   1.0000   1.0000
     1.0000   1.0000   1.0000   1.0000   1.0000   1.0000   1.0000   1.0000
     1.0000   1.0000   1.0000   1.0000   1.0000   1.0000   1.0000   1.0000
     1.0000   1.0000   1.0000   1.0000   1.0000   1.0000   1.0000   1.0000
     1.0000   1.0000   1.0000   1.0000   1.0000   1.0000   1.0000   1.0000
     1.0000   1.0000   1.0000   1.0000   1.0000   1.0000   1.0000   1.0000
     1.0000   1.0000   1.0000   1.0000   1.0000   1.0000   1.0000   1.0000
     1.0000   1.0000   1.0000   1.0000   1.0000   1.0000   1.0000   1.0000
     1.0000   1.0000   1.0000   1.0000   1.0000   1.0000   1.0000   1.0000
     1.0000   1.0000   1.0000   1.0000   1.0000   1.0000   1.0000   1.0000
     1.0000   1.0000   1.0000   1.0000   1.0000   1.0000   1.0000   1.0000
     1.0000   1.0000   1.0000   1.0000   1.0000   1.0000   1.0000   1.0000
     1.0000   1.0000   1.0000   1.0000   1.0000   1.0000   1.0000   1.0000
     1.0000   1.0000   1.0000   1.0000   1.0000   1.0000   1.0000   1.0000
     1.0000   1.0000   1.0000   1.0000   1.0000   1.0000   1.0000   1.0000
     1.0000   1.0000   1.0000   1.0000   1.0000   1.0000   1.0000   1.0000
     1.0000   1.0000   1.0000   1.0000   1.0000   1.0000   1.0000   1.0000
     1.0000   1.0000   1.0000   1.0000   1.0000   1.0000   1.0000   1.0000
     1.0000   1.0000   1.0000   1.0000   1.0000   1.0000   1.0000   1.0000
     1.0000   1.0000   1.0000   1.0000   1.0000   1.0000   1.0000   1.0000
     1.0000   1.0000   1.0000   1.0000   1.0000   1.0000   1.0000   1.0000
     1.0000   1.0000   1.0000   1.0000   1.0000   1.0000   1.0000   1.0000
     1.0000   1.0000   1.0000   1.0000   1.0000   1.0000   1.0000   1.0000
     1.0000   1.0000   1.0000   1.0000   1.0000   1.0000   1.0000   1.0000
     1.0000   1.0000   1.0000   1.0000   1.0000   1.0000   1.0000   1.0000
     1.0000   1.0000   1.0000   1.0000   1.0000   1.0000   1.0000   1.0001
     1.0001   1.0001   1.0001   1.0001   1.0002   1.0002   1.0002   1.0003
     1.0004   1.0006   1.0007   1.0008   1.0009   1.0010   1.0010   1.0014
     1.0015   1.0021   1.0024   1.0026   1.0030   1.0034   1.0048   1.0052
     1.0061   1.0073   1.0097   1.0107   1.0122   1.0141   1.0161   1.0190
     1.0197   1.0215   1.0239   1.0300   1.0371   1.0444   1.0465   1.0502
     1.0542   1.0574   1.0657   1.0691   1.0722   1.0753   1.0824   1.0832
     1.0833   1.0829   1.0796   1.0739   1.0571   1.0344   1.0196   0.9914
     0.9420   0.9287   0.9101   0.8570   0.7556   0.6659   0.5091   0.4641
     0.2139   0.1305   0.1070   0.0437   0.0274   0.0160   0.0123   0.0084
     0.0062   0.0056   0.0040   0.0030   0.0022   0.0010   0.0007   0.0005
     0.0004   0.0003   0.0002   0.0002   0.0001   0.0001   0.0001   0.0000
     0.0000   0.0000   0.0000   0.0000   0.0000   0.0000   0.0000   0.0000
     0.0000   0.0000   0.0000   0.0000   0.0000   0.0000   0.0000   0.0000
     0.0000   0.0000   0.0000   0.0000   0.0000   0.0000   0.0000   0.0000
     0.0000   0.0000   0.0000   0.0000   0.0000   0.0000   0.0000   0.0000
     0.0000   0.0000   0.0000   0.0000   0.0000   0.0000   0.0000   0.0000
     0.0000   0.0000   0.0000   0.0000   0.0000   0.0000   0.0000   0.0000
[...]
     atom   18 type  1   force =     0.00000089    0.00000067    0.00000585
     atom   19 type  1   force =     0.00000548    0.00000071    0.00000232
     atom   20 type  1   force =     0.00000347    0.00000037   -0.00000139
     atom   21 type  1   force =     0.00000298    0.00000684    0.00000023
     atom   22 type  1   force =     0.00000044    0.00000009   -0.00000131
     atom   23 type  1   force =     0.00000566    0.00000142   -0.00000359
     atom   24 type  1   force =    -0.00000021   -0.00000377   -0.00000547
     atom   25 type  1   force =     0.00000264   -0.00000082   -0.00000486
     atom   26 type  1   force =    -0.00000996   -0.00000277   -0.00000390
     atom   27 type  1   force =    -0.00000026    0.00000224   -0.00000633
     atom   28 type  1   force =    -0.00000241    0.00000278   -0.00000509
     atom   29 type  1   force =    -0.00000171    0.00000612    0.00000444
     atom   30 type  1   force =     0.00000352    0.00000131    0.00000229
     atom   31 type  1   force =     0.00000087    0.00000152    0.00000577
     atom   32 type  1   force =    -0.00000403   -0.00000479    0.00000206
     atom   33 type  1   force =    -0.00000253   -0.00000318    0.00000996
     atom   34 type  1   force =     0.00000091    0.00000421    0.00001159
     atom   35 type  1   force =    -0.00000275   -0.00000160    0.00000969
     atom   36 type  1   force =     0.00000032   -0.00000013    0.00000565
     atom   37 type  1   force =    -0.00000278    0.00000655    0.00000953
     atom   38 type  1   force =     0.00000248    0.00000395    0.00001579
     atom   39 type  1   force =     0.00000231    0.00000108    0.00001183
     atom   40 type  1   force =     0.00000091    0.00000718   -0.00000378
     atom   41 type  1   force =     0.00000350   -0.00000366    0.00000623
     atom   42 type  1   force =     0.00000424   -0.00000141   -0.00000895
     atom   43 type  1   force =    -0.00000325   -0.00000152   -0.00000681
     atom   44 type  1   force =     0.00000214    0.00000552   -0.00000747
     atom   45 type  1   force =     0.00000180    0.00000026   -0.00000726
     atom   46 type  1   force =    -0.00000114   -0.00000143    0.00000039
     atom   47 type  1   force =     0.00000218    0.00000475   -0.00000364
     atom   48 type  1   force =     0.00000213   -0.00000243   -0.00000771
     atom   49 type  1   force =    -0.00000375    0.00000397   -0.00000058
     atom   50 type  1   force =    -0.00000018    0.00000527    0.00000188
     atom   51 type  1   force =    -0.00000375    0.00000131    0.00000851
     atom   52 type  1   force =     0.00000534    0.00000205   -0.00000397
     atom   53 type  1   force =    -0.00001274   -0.00000131    0.00001073
     atom   54 type  1   force =    -0.00000077    0.00000190    0.00000656
     atom   55 type  1   force =     0.00000320    0.00000253    0.00000679
     atom   56 type  1   force =     0.00000842    0.00000086   -0.00000120
     atom   57 type  1   force =    -0.00000182   -0.00000411    0.00001149
     atom   58 type  1   force =    -0.00000030    0.00000624   -0.00000332
     atom   59 type  1   force =     0.00000188    0.00000118    0.00001112
     atom   60 type  1   force =    -0.00000632   -0.00000237   -0.00000270
     atom   61 type  1   force =     0.00000085    0.00000397   -0.00000392
     atom   62 type  1   force =     0.00000518   -0.00000073   -0.00000557
     atom   63 type  1   force =     0.00000317    0.00000109   -0.00000193
     atom   64 type  1   force =    -0.00000032   -0.00000002   -0.00001548
     atom   65 type  1   force =     0.00000061    0.00000197   -0.00000634
     atom   66 type  1   force =     0.00000033    0.00000091   -0.00001507
     atom   67 type  1   force =     0.00000291    0.00000232   -0.00001115
     atom   68 type  1   force =     0.00000063    0.00000154   -0.00000794
     atom   69 type  1   force =    -0.00000405   -0.00000992    0.00000044
     atom   70 type  1   force =     0.00000508    0.00000270   -0.00000864
     atom   71 type  1   force =    -0.00001135   -0.00000018    0.00000216
     atom   72 type  1   force =    -0.00000389   -0.00000647    0.00000047
     atom   73 type  1   force =    -0.00000740   -0.00000358    0.00000389
     atom   74 type  1   force =     0.00000379   -0.00000210    0.00000295
     atom   75 type  1   force =     0.00000265   -0.00000191    0.00000433
     atom   76 type  1   force =     0.00000103   -0.00000299    0.00000604
     atom   77 type  1   force =     0.00000159   -0.00000326    0.00000883
     atom   78 type  1   force =    -0.00000192    0.00000058    0.00000196
     atom   79 type  1   force =     0.00000227   -0.00000326    0.00000609
     atom   80 type  1   force =    -0.00000218    0.00000410   -0.00000975
     atom   81 type  1   force =    -0.00000538   -0.00000424   -0.00000060
     atom   82 type  1   force =     0.00000308   -0.00000112   -0.00001850
     atom   83 type  1   force =     0.00000336    0.00000241   -0.00000681
     atom   84 type  1   force =    -0.00000107    0.00000679   -0.00001870
     atom   85 type  1   force =     0.00000232    0.00000989    0.00000542
     atom   86 type  1   force =     0.00000000    0.00000423   -0.00000549
     atom   87 type  1   force =     0.00000168    0.00000098   -0.00000309
     atom   88 type  1   force =    -0.00000210   -0.00000301   -0.00002054
     atom   89 type  1   force =    -0.00000554   -0.00000421    0.00000120
     atom   90 type  1   force =    -0.00000438    0.00000230   -0.00000072
     atom   91 type  1   force =    -0.00000227    0.00000170   -0.00000327
     atom   92 type  1   force =    -0.00000205   -0.00000229   -0.00000653
     atom   93 type  1   force =    -0.00000277    0.00000430   -0.00000435
     atom   94 type  1   force =     0.00000312   -0.00000129    0.00000642
     atom   95 type  1   force =     0.00000522    0.00000158    0.00000726
     atom   96 type  1   force =     0.00000543    0.00000378   -0.00000030
     atom   97 type  1   force =    -0.00000651    0.00000388    0.00000707
     atom   98 type  1   force =    -0.00000117   -0.00000116    0.00000263
     atom   99 type  1   force =     0.00000306   -0.00000120    0.00000241
     atom  100 type  1   force =     0.00000297   -0.00000389   -0.00001100
     atom  101 type  1   force =    -0.00000234   -0.00000394    0.00000285
     atom  102 type  1   force =     0.00001012   -0.00000020   -0.00001338
     atom  103 type  1   force =     0.00000663   -0.00000904   -0.00000093
     atom  104 type  1   force =     0.00000401   -0.00000619   -0.00002767
     atom  105 type  1   force =    -0.00000003   -0.00000928   -0.00000718
     atom  106 type  1   force =     0.00000301   -0.00000421   -0.00002180
     atom  107 type  1   force =    -0.00000810   -0.00000130   -0.00000633
     atom  108 type  1   force =    -0.00000192   -0.00000662   -0.00000729
     atom  109 type  1   force =    -0.00000395    0.00000362   -0.00000389
     atom  110 type  1   force =    -0.00000500    0.00000216    0.00000210
     atom  111 type  1   force =     0.00000079    0.00000249    0.00000122
     atom  112 type  1   force =    -0.00000104    0.00001283    0.00000122
     atom  113 type  1   force =     0.00000062    0.00000488    0.00000517
     atom  114 type  1   force =     0.00000503    0.00000668    0.00000174
     atom  115 type  1   force =     0.00000014   -0.00000018    0.00000444
     atom  116 type  1   force =     0.00000124    0.00000387   -0.00000006
     atom  117 type  1   force =    -0.00000262   -0.00000461    0.00000597
     atom  118 type  1   force =    -0.00000473   -0.00000521   -0.00000579
     atom  119 type  1   force =    -0.00000505   -0.00000395   -0.00000217
     atom  120 type  1   force =     0.00000468   -0.00000449   -0.00001119
     atom  121 type  1   force =     0.00000443    0.00000862   -0.00000212
     atom  122 type  1   force =     0.00000160   -0.00000121   -0.00000737
     atom  123 type  1   force =     0.00000705   -0.00001060   -0.00000570
     atom  124 type  1   force =     0.00000021    0.00000750   -0.00000898
     atom  125 type  1   force =    -0.00000230   -0.00000091   -0.00000609
     atom  126 type  1   force =     0.00000381   -0.00000435   -0.00001347
     atom  127 type  1   force =    -0.00000285   -0.00000316   -0.00000316
     atom  128 type  1   force =     0.00000015   -0.00000410   -0.00000358
     atom  129 type  1   force =     0.00000232   -0.00000563   -0.00000279
     atom  130 type  1   force =     0.00000681   -0.00000073   -0.00000893
     atom  131 type  1   force =    -0.00000002   -0.00000313    0.00000911
     atom  132 type  1   force =     0.00000188   -0.00000213   -0.00000322
     atom  133 type  1   force =     0.00000005   -0.00000108    0.00000928
     atom  134 type  1   force =    -0.00000196    0.00000191   -0.00000650
     atom  135 type  1   force =    -0.00000167   -0.00000050    0.00000683
     atom  136 type  1   force =    -0.00000140   -0.00000769   -0.00000450
     atom  137 type  1   force =    -0.00000427   -0.00000579    0.00000694
     atom  138 type  1   force =    -0.00000657   -0.00000008   -0.00000615
     atom  139 type  1   force =     0.00000051   -0.00000168   -0.00000262
     atom  140 type  1   force =    -0.00000194    0.00000153   -0.00001006
     atom  141 type  1   force =     0.00000673    0.00000334    0.00000110
     atom  142 type  1   force =     0.00000561    0.00000186   -0.00001242
     atom  143 type  1   force =     0.00000005   -0.00000044    0.00000184
     atom  144 type  1   force =    -0.00000617   -0.00000022   -0.00000916
     atom  145 type  1   force =     0.00000097    0.00000285    0.00000280
     atom  146 type  1   force =    -0.00000064   -0.00000087   -0.00000593
     atom  147 type  1   force =    -0.00000258   -0.00000170   -0.00000827
     atom  148 type  1   force =    -0.00000260    0.00000623    0.00000112
     atom  149 type  1   force =     0.00000274   -0.00000496    0.00000673
     atom  150 type  1   force =     0.00000635   -0.00000090    0.00000085
     atom  151 type  1   force =     0.00000438   -0.00000347    0.00000915
     atom  152 type  1   force =    -0.00000328    0.00000010    0.00000093
     atom  153 type  1   force =     0.00000014   -0.00000403    0.00002095
     atom  154 type  1   force =     0.00000043   -0.00000582   -0.00000386
     atom  155 type  1   force =    -0.00001326   -0.00000271    0.00001348
     atom  156 type  1   force =     0.00000463   -0.00000468   -0.00000209
     atom  157 type  1   force =    -0.00000201    0.00000582    0.00000738
     atom  158 type  1   force =     0.00000118   -0.00000098    0.00000200
     atom  159 type  1   force =     0.00000600    0.00000397    0.00000541
     atom  160 type  1   force =    -0.00000349    0.00000347   -0.00000325
     atom  161 type  1   force =     0.00000714   -0.00000073    0.00000434
     atom  162 type  1   force =    -0.00000416    0.00000394   -0.00001068
     atom  163 type  1   force =    -0.00000076   -0.00000123   -0.00000036
     atom  164 type  1   force =     0.00000752    0.00000165   -0.00000513
     atom  165 type  1   force =    -0.00000303    0.00000457    0.00000237
     atom  166 type  1   force =    -0.00000467    0.00000845   -0.00001144
     atom  167 type  1   force =    -0.00000269    0.00000778    0.00000179
     atom  168 type  1   force =    -0.00000203    0.00000542   -0.00000363
     atom  169 type  1   force =    -0.00000787    0.00000252    0.00000208
     atom  170 type  1   force =     0.00000255    0.00000351   -0.00000280
     atom  171 type  1   force =     0.00000007   -0.00000772    0.00000673
     atom  172 type  1   force =     0.00000123    0.00000139    0.00000125
     atom  173 type  1   force =    -0.00000067   -0.00000182    0.00001056
     atom  174 type  1   force =    -0.00000449   -0.00000111    0.00000386
     atom  175 type  1   force =    -0.00000602   -0.00000167    0.00000649
     atom  176 type  1   force =     0.00000277   -0.00000019    0.00000248
     atom  177 type  1   force =    -0.00000577   -0.00000209    0.00000732
     atom  178 type  1   force =     0.00000754   -0.00000316   -0.00000355
     atom  179 type  1   force =    -0.00000224   -0.00000168    0.00000500
     atom  180 type  1   force =     0.00000188    0.00000104   -0.00000095
     atom  181 type  1   force =     0.00000344    0.00000010   -0.00000446
     atom  182 type  1   force =     0.00000065   -0.00000111    0.00000618
     atom  183 type  1   force =     0.00000081    0.00000217   -0.00000274
     atom  184 type  1   force =     0.00000226   -0.00000073   -0.00000292
     atom  185 type  1   force =     0.00000101   -0.00000384   -0.00000611
     atom  186 type  1   force =     0.00000207    0.00000212   -0.00000241
     atom  187 type  1   force =    -0.00000398    0.00000259    0.00000823
     atom  188 type  1   force =    -0.00000641   -0.00000478   -0.00000259
     atom  189 type  1   force =    -0.00000492    0.00000068    0.00000581
     atom  190 type  1   force =    -0.00000153   -0.00000023    0.00000744
     atom  191 type  1   force =    -0.00000368   -0.00000009    0.00001327
     atom  192 type  1   force =    -0.00000328   -0.00000086    0.00001088
     atom  193 type  1   force =     0.00000028   -0.00000061    0.00001661
     atom  194 type  1   force =    -0.00000400   -0.00000197    0.00000371
     atom  195 type  1   force =     0.00000324   -0.00000202    0.00000972
     atom  196 type  1   force =    -0.00000223    0.00000749    0.00000416
     atom  197 type  1   force =    -0.00000536    0.00000337    0.00001206
     atom  198 type  1   force =     0.00001576   -0.00000076    0.00000124
     atom  199 type  1   force =     0.00000511    0.00000151    0.00000787
     atom  200 type  1   force =     0.00000398   -0.00000581   -0.00000120

     Total force =     0.390264     Total SCF correction =     0.000135


     Computing stress (Cartesian axis) and pressure


     negative rho (up, down):  4.036E-02 0.000E+00
          total   stress  (Ry/bohr**3)                   (kbar)     P=   -1.51
  -0.00001089  -0.00000076   0.00000065         -1.60     -0.11      0.10
  -0.00000076  -0.00001022  -0.00000063         -0.11     -1.50     -0.09
   0.00000065  -0.00000063  -0.00000978          0.10     -0.09     -1.44

     kinetic stress (kbar)    482.48      0.06      0.05
                                0.06    482.44     -0.04
                                0.05     -0.04    486.93

     local   stress (kbar) -51788.12      2.43    -14.68
                                2.43 -51804.93     13.21
                              -14.68     13.21  51820.67

     nonloc. stress (kbar)    601.94     -0.07     -0.00
                               -0.07    602.01     -0.01
                               -0.00     -0.01    591.24

     hartree stress (kbar)  26318.16      0.30      7.09
                                0.30  26325.25     -6.11
                                7.09     -6.11 -24878.62

     exc-cor stress (kbar)    768.22     -0.00     -0.00
                               -0.00    768.23     -0.00
                               -0.00     -0.00    767.45

     corecor stress (kbar)  -1148.43      0.01     -0.00
                                0.01  -1148.44      0.00
                               -0.00      0.00  -1148.00

     ewald   stress (kbar)  24764.15     -2.82      7.63
                               -2.82  24773.93     -7.15
                                7.63     -7.15 -27641.11

     hubbard stress (kbar)      0.00      0.00      0.00
                                0.00      0.00      0.00
                                0.00      0.00      0.00

     london  stress (kbar)      0.00      0.00      0.00
                                0.00      0.00      0.00
                                0.00      0.00      0.00

     DFT-D3  stress (kbar)      0.00      0.00      0.00
                                0.00      0.00      0.00
                                0.00      0.00      0.00

     XDM     stress (kbar)      0.00      0.00      0.00
                                0.00      0.00      0.00
                                0.00      0.00      0.00

     dft-nl  stress (kbar)      0.00      0.00      0.00
                                0.00      0.00      0.00
                                0.00      0.00      0.00

     TS-vdW  stress (kbar)      0.00      0.00      0.00
                                0.00      0.00      0.00
                                0.00      0.00      0.00



     Writing output data file scf.save/
 
     init_run     :    101.64s CPU    106.33s WALL (       1 calls)
     electrons    :  12409.84s CPU  12652.55s WALL (       1 calls)
     forces       :     14.93s CPU     15.62s WALL (       1 calls)
     stress       :    277.04s CPU    278.63s WALL (       1 calls)

     Called by init_run:
     wfcinit      :     63.26s CPU     64.44s WALL (       1 calls)
     wfcinit:atom :      0.05s CPU      0.10s WALL (       1 calls)
     wfcinit:wfcr :     63.11s CPU     64.16s WALL (       1 calls)
     potinit      :      1.32s CPU      1.38s WALL (       1 calls)
     hinit0       :      6.28s CPU      9.28s WALL (       1 calls)

     Called by electrons:
     c_bands      :   7659.69s CPU   7796.74s WALL (      31 calls)
     sum_band     :    909.49s CPU    929.24s WALL (      31 calls)
     v_of_rho     :     26.67s CPU     27.25s WALL (      32 calls)
     v_h          :      3.51s CPU      3.58s WALL (      32 calls)
     v_xc         :     24.47s CPU     25.01s WALL (      34 calls)
     newd         :     27.80s CPU     32.82s WALL (      32 calls)
     mix_rho      :   3777.89s CPU   3843.69s WALL (      31 calls)

     Called by c_bands:
     init_us_2    :      5.84s CPU      5.96s WALL (      63 calls)
     regterg      :   7626.00s CPU   7762.39s WALL (      41 calls)

     Called by sum_band:
     sum_band:bec :      0.74s CPU      0.75s WALL (      31 calls)
     addusdens    :     25.98s CPU     30.76s WALL (      31 calls)

     Called by *egterg:
     h_psi        :   5346.77s CPU   5435.36s WALL (     561 calls)
     s_psi        :    233.82s CPU    235.84s WALL (     561 calls)
     g_psi        :      1.90s CPU      1.91s WALL (     519 calls)
     rdiaghg      :   1044.89s CPU   1060.10s WALL (     560 calls)
     regterg:over :    368.96s CPU    376.30s WALL (     519 calls)
     regterg:upda :    414.65s CPU    418.60s WALL (     519 calls)
     regterg:last :    154.33s CPU    155.47s WALL (      42 calls)
     rdiaghg:chol :     28.34s CPU     29.02s WALL (     560 calls)
     rdiaghg:inve :     29.68s CPU     30.13s WALL (     560 calls)
     rdiaghg:para :     79.01s CPU     82.51s WALL (    1120 calls)

     Called by h_psi:
     h_psi:pot    :   5342.54s CPU   5431.10s WALL (     561 calls)
     h_psi:calbec :    256.89s CPU    261.18s WALL (     561 calls)
     vloc_psi     :   4849.16s CPU   4931.36s WALL (     561 calls)
     add_vuspsi   :    236.47s CPU    238.55s WALL (     561 calls)

     General routines
     calbec       :    339.05s CPU    344.84s WALL (     597 calls)
     fft          :     45.20s CPU     49.03s WALL (     370 calls)
     ffts         :   3431.95s CPU   3494.02s WALL (   78363 calls)
     fftw         :   5367.87s CPU   5461.44s WALL (  190738 calls)
     interpolate  :      4.52s CPU      4.59s WALL (      32 calls)
 
     Parallel routines
     fft_scatt_xy :    197.59s CPU    199.17s WALL (  269471 calls)
     fft_scatt_yz :   8037.99s CPU   8191.19s WALL (  269471 calls)
 
     PWSCF        :      3h34m CPU      3h39m WALL

 
   This run was terminated on:  19:57:21   4Dec2019            

=------------------------------------------------------------------------------=
   JOB DONE.
=------------------------------------------------------------------------------=
