
     Program PWSCF v.6.3 starts on  1Dec2019 at  1: 9:34 

     This program is part of the open-source Quantum ESPRESSO suite
     for quantum simulation of materials; please cite
         "P. Giannozzi et al., J. Phys.:Condens. Matter 21 395502 (2009);
         "P. Giannozzi et al., J. Phys.:Condens. Matter 29 465901 (2017);
          URL http://www.quantum-espresso.org", 
     in publications or presentations arising from this work. More details at
     http://www.quantum-espresso.org/quote

     Parallel version (MPI), running on   448 processors

     MPI processes distributed on    14 nodes
     R & G space division:  proc/nbgrp/npool/nimage =     448
     Reading input from scf.pwi
Warning: card &IONS ignored
Warning: card / ignored
Warning: card &CELL ignored
Warning: card    CELL_DOFREE      = '2DXY' ignored
Warning: card / ignored

     Current dimensions of program PWSCF are:
     Max number of different atomic species (ntypx) = 10
     Max number of k-points (npk) =  40000
     Max angular momentum in pseudopotentials (lmaxx) =  3

     gamma-point specific algorithms are used

     Subspace diagonalization in iterative solution of the eigenvalue problem:
     one sub-group per band group will be used
     scalapack distributed-memory algorithm (size of sub-group: 14* 14 procs)

 
     Parallelization info
     --------------------
     sticks:   dense  smooth     PW     G-vecs:    dense   smooth      PW
     Min         460     229     56               184940    65380    8140
     Max         462     232     58               184994    65412    8198
     Sum      206659  103297  25827             82864339 29296605 3662131
 


     bravais-lattice index     =            0
     lattice parameter (alat)  =      74.9798  a.u.
     unit-cell volume          =  613376.7080 (a.u.)^3
     number of atoms/cell      =          200
     number of atomic types    =            1
     number of electrons       =      2800.00
     number of Kohn-Sham states=         1680
     kinetic-energy cutoff     =      50.0000  Ry
     charge density cutoff     =     400.0000  Ry
     convergence threshold     =      2.0E-08
     mixing beta               =       0.4000
     number of iterations used =            8  local-TF  mixing
     Exchange-correlation      = SLA  PW   PSX  PSC ( 1  4 10  8 0 0)

     celldm(1)=  74.979798  celldm(2)=   0.000000  celldm(3)=   0.000000
     celldm(4)=   0.000000  celldm(5)=   0.000000  celldm(6)=   0.000000

     crystal axes: (cart. coord. in units of alat)
               a(1) = (   1.000000   0.000000   0.000000 )  
               a(2) = (   0.000000   1.154702   0.000000 )  
               a(3) = (   0.000000   0.000000   1.260157 )  

     reciprocal axes: (cart. coord. in units 2 pi/alat)
               b(1) = (  1.000000  0.000000  0.000000 )  
               b(2) = (  0.000000  0.866024  0.000000 )  
               b(3) = (  0.000000  0.000000  0.793552 )  


     PseudoPot. # 1 for Sn read from file:
     /n/home08/xiey/q-e/pseudo/sn_pbesol_v1.4.uspp.F.UPF
     MD5 check sum: 463fec1d5456f1e96ec1bfcad4b7b038
     Pseudo is Ultrasoft + core correction, Zval = 14.0
     Generated by new atomic code, or converted to UPF format
     Using radial grid of  891 points,  6 beta functions with: 
                l(1) =   0
                l(2) =   0
                l(3) =   1
                l(4) =   1
                l(5) =   2
                l(6) =   2
     Q(r) pseudized with  8 coefficients,  rinner =    1.350   1.350   1.350
                                                       1.350   1.350

     atomic species   valence    mass     pseudopotential
        Sn            14.00   118.71000     Sn( 1.00)

     No symmetry found


                                    s                        frac. trans.

      isym =  1     identity                                     

 cryst.   s( 1) = (     1          0          0      )
                  (     0          1          0      )
                  (     0          0          1      )

 cart.    s( 1) = (  1.0000000  0.0000000  0.0000000 )
                  (  0.0000000  1.0000000  0.0000000 )
                  (  0.0000000  0.0000000  1.0000000 )


   Cartesian axes

     site n.     atom                  positions (alat units)
         1           Sn  tau(   1) = (   0.6651612   0.4988936   0.1790433  )
         2           Sn  tau(   2) = (   0.4030360   0.3481083   1.1750509  )
         3           Sn  tau(   3) = (   0.6044670   0.1644172   1.0778222  )
         4           Sn  tau(   4) = (   0.6841744   0.3552836   0.1895599  )
         5           Sn  tau(   5) = (   0.5227610   0.3748513   1.1337883  )
         6           Sn  tau(   6) = (   0.6266332   0.6233063   0.1853809  )
         7           Sn  tau(   7) = (   0.7349159   0.2528076   1.0422253  )
         8           Sn  tau(   8) = (   0.4832399   0.3165136   1.2592647  )
         9           Sn  tau(   9) = (   0.4273242   0.2274306   1.1367875  )
        10           Sn  tau(  10) = (   0.7762869   0.5496552   0.0739498  )
        11           Sn  tau(  11) = (   0.5480624   0.5034957   0.2356992  )
        12           Sn  tau(  12) = (   0.8079597   0.3681195   0.0792137  )
        13           Sn  tau(  13) = (   0.6754894   0.4359210   1.0992273  )
        14           Sn  tau(  14) = (   0.6322308   0.5947512   1.2188615  )
        15           Sn  tau(  15) = (   0.4682365   0.1446814   0.1525783  )
        16           Sn  tau(  16) = (   0.6288233   0.6279740   0.0657935  )
        17           Sn  tau(  17) = (   0.6644177   0.2117731   0.1087893  )
        18           Sn  tau(  18) = (   0.4028268   0.2805412   0.1428965  )
        19           Sn  tau(  19) = (   0.7954715   0.2902545   1.1336522  )
        20           Sn  tau(  20) = (   0.6250076   0.2120479   0.0271982  )
        21           Sn  tau(  21) = (   0.4456293   0.2803118   1.1993442  )
        22           Sn  tau(  22) = (   0.6461908   0.5236582   1.2220724  )
        23           Sn  tau(  23) = (   0.4308930   0.3361771   0.2188895  )
        24           Sn  tau(  24) = (   0.5503533   0.2694014   0.0411265  )
        25           Sn  tau(  25) = (   0.5275470   0.2641566   1.2135714  )
        26           Sn  tau(  26) = (   0.4719615   0.2899319   0.0751086  )
        27           Sn  tau(  27) = (   0.5384625   0.1773305   1.1788087  )
        28           Sn  tau(  28) = (   0.6972423   0.2724510   0.0832820  )
        29           Sn  tau(  29) = (   0.6155161   0.2742051   0.0919282  )
        30           Sn  tau(  30) = (   0.6664188   0.3647272   1.1423246  )
        31           Sn  tau(  31) = (   0.6743528   0.2291865   0.2323379  )
        32           Sn  tau(  32) = (   0.7991789   0.2013486   0.0732194  )
        33           Sn  tau(  33) = (   0.4303814   0.1655985   0.0139881  )
        34           Sn  tau(  34) = (   0.5469282   0.3265167   0.2122825  )
        35           Sn  tau(  35) = (   0.4384413   0.3998276   0.0368561  )
        36           Sn  tau(  36) = (   0.5162081   0.2391735   1.1399429  )
        37           Sn  tau(  37) = (   0.7306137   0.2729903   0.2097587  )
        38           Sn  tau(  38) = (   0.7376026   0.4723018   1.2247515  )
        39           Sn  tau(  39) = (   0.6871585   0.2296757   1.1646445  )
        40           Sn  tau(  40) = (   0.6711923   0.3805850   0.0302579  )
        41           Sn  tau(  41) = (   0.6740932   0.1788583   0.1773439  )
        42           Sn  tau(  42) = (   0.4865667   0.3760258   0.2446096  )
        43           Sn  tau(  43) = (   0.5085262   0.3616877   0.0568986  )
        44           Sn  tau(  44) = (   0.6152539   0.3467246   0.2336953  )
        45           Sn  tau(  45) = (   0.6574238   0.1670963   1.1353030  )
        46           Sn  tau(  46) = (   0.5729001   0.3123400   1.1607380  )
        47           Sn  tau(  47) = (   0.7888128   0.2182332   1.1189512  )
        48           Sn  tau(  48) = (   0.5555402   0.4070029   0.2221485  )
        49           Sn  tau(  49) = (   0.3346649   0.3918987   1.1517909  )
        50           Sn  tau(  50) = (   0.6592032   0.3519593   0.1072482  )
        51           Sn  tau(  51) = (   0.5097536   0.4375189   1.1833201  )
        52           Sn  tau(  52) = (   0.5968481   0.2527018   1.2210996  )
        53           Sn  tau(  53) = (   0.3813966   0.2718562   1.1049433  )
        54           Sn  tau(  54) = (   0.4766569   0.2270712   1.0710602  )
        55           Sn  tau(  55) = (   0.7295174   0.3465028   0.0684389  )
        56           Sn  tau(  56) = (   0.4678710   0.1180787   1.2189422  )
        57           Sn  tau(  57) = (   0.6329163   0.4879957   1.1473476  )
        58           Sn  tau(  58) = (   0.7949700   0.3322958   0.0213947  )
        59           Sn  tau(  59) = (   0.3969545   0.2391596   1.2530445  )
        60           Sn  tau(  60) = (   0.6685913   0.2785552   0.1561297  )
        61           Sn  tau(  61) = (   0.6504577   0.2946726   1.1812358  )
        62           Sn  tau(  62) = (   0.5753246   0.4723043   1.2128027  )
        63           Sn  tau(  63) = (   0.6888673   0.2402345   1.2468546  )
        64           Sn  tau(  64) = (   0.7045436   0.3755217   1.0700471  )
        65           Sn  tau(  65) = (   0.5316501   0.4648441   0.0115449  )
        66           Sn  tau(  66) = (   0.5321214   0.3702114   0.1398636  )
        67           Sn  tau(  67) = (   0.5344880   0.1455514   0.0952661  )
        68           Sn  tau(  68) = (   0.7658629   0.1714088   1.2597889  )
        69           Sn  tau(  69) = (   0.4701141   0.2475908   0.0097786  )
        70           Sn  tau(  70) = (   0.6880255   0.6241481   0.1286149  )
        71           Sn  tau(  71) = (   0.3932143   0.3535194   1.0972690  )
        72           Sn  tau(  72) = (   0.5176498   0.3962714   1.2547886  )
        73           Sn  tau(  73) = (   0.6021382   0.2684033   0.2235468  )
        74           Sn  tau(  74) = (   0.4735065   0.3161633   0.1591097  )
        75           Sn  tau(  75) = (   0.7281237   0.5391455   0.0159954  )
        76           Sn  tau(  76) = (   0.7598217   0.2318716   1.1871031  )
        77           Sn  tau(  77) = (   0.7453248   0.3826315   1.1376495  )
        78           Sn  tau(  78) = (   0.6585051   0.1168511   1.2039110  )
        79           Sn  tau(  79) = (   0.7371288   0.4871514   0.1612088  )
        80           Sn  tau(  80) = (   0.5591694   0.4263564   0.0836205  )
        81           Sn  tau(  81) = (   0.7420988   0.3069263   0.1420799  )
        82           Sn  tau(  82) = (   0.6309757   0.2971576   1.1102158  )
        83           Sn  tau(  83) = (   0.7325594   0.3095197   1.0992096  )
        84           Sn  tau(  84) = (   0.4776121   0.3666804   1.0690717  )
        85           Sn  tau(  85) = (   0.4655398   0.2274434   0.1484465  )
        86           Sn  tau(  86) = (   0.6423524   0.4285012   1.1968415  )
        87           Sn  tau(  87) = (   0.5245932   0.5302463   0.1762733  )
        88           Sn  tau(  88) = (   0.7283631   0.5536928   0.1304673  )
        89           Sn  tau(  89) = (   0.4631127   0.1619302   1.1356004  )
        90           Sn  tau(  90) = (   0.4600808   0.4756008   0.1527744  )
        91           Sn  tau(  91) = (   0.4866953   0.2912802   0.2537931  )
        92           Sn  tau(  92) = (   0.6702195   0.3018025   0.2594235  )
        93           Sn  tau(  93) = (   0.5757379   0.5559938   1.1772965  )
        94           Sn  tau(  94) = (   0.7162026   0.6061682   0.0532331  )
        95           Sn  tau(  95) = (   0.7536141   0.4054807   0.0158904  )
        96           Sn  tau(  96) = (   0.3330191   0.3218037   1.1351795  )
        97           Sn  tau(  97) = (   0.6397968   0.3516821   1.2258529  )
        98           Sn  tau(  98) = (   0.3721722   0.3645483   0.1787452  )
        99           Sn  tau(  99) = (   0.5616192   0.3396677   1.2560034  )
       100           Sn  tau( 100) = (   0.5921805   0.3567000   0.0609452  )
       101           Sn  tau( 101) = (   0.4842077   0.4520460   0.2237469  )
       102           Sn  tau( 102) = (   0.3701383   0.3670913   0.0468594  )
       103           Sn  tau( 103) = (   0.5366756   0.1799564   1.0977453  )
       104           Sn  tau( 104) = (   0.4492207   0.4884973   1.1629836  )
       105           Sn  tau( 105) = (   0.6047039   0.4624448   0.2034425  )
       106           Sn  tau( 106) = (   0.7379252   0.1556896   1.1281630  )
       107           Sn  tau( 107) = (   0.3535874   0.3269905   0.1152867  )
       108           Sn  tau( 108) = (   0.4495509   0.3037356   1.1248261  )
       109           Sn  tau( 109) = (   0.3316128   0.3366509   1.2138990  )
       110           Sn  tau( 110) = (   0.5812045   0.1267002   1.1390810  )
       111           Sn  tau( 111) = (   0.5719398   0.5671512   0.0708198  )
       112           Sn  tau( 112) = (   0.5983628   0.3729056   1.1178272  )
       113           Sn  tau( 113) = (   0.3358142   0.3972468   0.1039952  )
       114           Sn  tau( 114) = (   0.4638663   0.1987877   1.2086265  )
       115           Sn  tau( 115) = (   0.6439049   0.2968778   0.0239756  )
       116           Sn  tau( 116) = (   0.6011150   0.3981617   0.1499829  )
       117           Sn  tau( 117) = (   0.5986980   0.4202699   0.0089871  )
       118           Sn  tau( 118) = (   0.7243205   0.3184038   1.1778787  )
       119           Sn  tau( 119) = (   0.6715502   0.6322686   0.0045287  )
       120           Sn  tau( 120) = (   0.4086840   0.4331436   0.2083241  )
       121           Sn  tau( 121) = (   0.7296333   0.1595754   1.1990090  )
       122           Sn  tau( 122) = (   0.3355823   0.4433333   0.1551450  )
       123           Sn  tau( 123) = (   0.7952296   0.3125063   1.2040774  )
       124           Sn  tau( 124) = (   0.3987262   0.3207679   1.2439134  )
       125           Sn  tau( 125) = (   0.4396032   0.2547432   0.2138217  )
       126           Sn  tau( 126) = (   0.4562171   0.4896970   0.0399031  )
       127           Sn  tau( 127) = (   0.7216566   0.2046918   0.0537023  )
       128           Sn  tau( 128) = (   0.3868808   0.4549822   1.1775788  )
       129           Sn  tau( 129) = (   0.5794126   0.1166734   1.2196705  )
       130           Sn  tau( 130) = (   0.4378717   0.4580267   1.2291721  )
       131           Sn  tau( 131) = (   0.5039115   0.3438968   1.1913019  )
       132           Sn  tau( 132) = (   0.7151239   0.3159012   1.2570392  )
       133           Sn  tau( 133) = (   0.5970674   0.3216777   0.1593592  )
       134           Sn  tau( 134) = (   0.5424874   0.4019825   1.0572867  )
       135           Sn  tau( 135) = (   0.4457729   0.1526254   0.0867741  )
       136           Sn  tau( 136) = (   0.6148784   0.1491915   0.1403543  )
       137           Sn  tau( 137) = (   0.6499738   0.5674940   0.1158361  )
       138           Sn  tau( 138) = (   0.4977393   0.2083889   0.0762123  )
       139           Sn  tau( 139) = (   0.6757138   0.1566020   0.0121893  )
       140           Sn  tau( 140) = (   0.6253906   0.1838632   1.2021997  )
       141           Sn  tau( 141) = (   0.6371151   0.4257062   0.0828478  )
       142           Sn  tau( 142) = (   0.3899883   0.2063109   0.1542127  )
       143           Sn  tau( 143) = (   0.7779856   0.2763222   0.0777847  )
       144           Sn  tau( 144) = (   0.5790270   0.2458717   1.0696237  )
       145           Sn  tau( 145) = (   0.6818381   0.5618939   0.2048025  )
       146           Sn  tau( 146) = (   0.4171875   0.2206131   0.0835807  )
       147           Sn  tau( 147) = (   0.6746023   0.4260817   0.1523416  )
       148           Sn  tau( 148) = (   0.5009754   0.1411562   0.0209664  )
       149           Sn  tau( 149) = (   0.3633057   0.4435198   0.0363381  )
       150           Sn  tau( 150) = (   0.8059862   0.1735801   1.1816541  )
       151           Sn  tau( 151) = (   0.7976465   0.4340585   0.1028933  )
       152           Sn  tau( 152) = (   0.6518615   0.5557393   0.0366998  )
       153           Sn  tau( 153) = (   0.5333286   0.1907293   0.1492278  )
       154           Sn  tau( 154) = (   0.6760389   0.4638209   0.0105174  )
       155           Sn  tau( 155) = (   0.7447275   0.3867295   0.1394502  )
       156           Sn  tau( 156) = (   0.5406023   0.4564187   0.1551878  )
       157           Sn  tau( 157) = (   0.5001890   0.4574445   1.1066320  )
       158           Sn  tau( 158) = (   0.5062579   0.5192376   1.2167823  )
       159           Sn  tau( 159) = (   0.6030153   0.1405680   0.0201893  )
       160           Sn  tau( 160) = (   0.5984687   0.4912016   0.0416285  )
       161           Sn  tau( 161) = (   0.7128884   0.1837024   1.0636530  )
       162           Sn  tau( 162) = (   0.5418221   0.2698576   0.1200985  )
       163           Sn  tau( 163) = (   0.5751104   0.3897514   1.1932677  )
       164           Sn  tau( 164) = (   0.3764114   0.3988623   1.2354275  )
       165           Sn  tau( 165) = (   0.5005091   0.5508675   0.0308310  )
       166           Sn  tau( 166) = (   0.4687002   0.3018781   1.0422606  )
       167           Sn  tau( 167) = (   0.4844219   0.4306057   0.0928347  )
       168           Sn  tau( 168) = (   0.5153941   0.5243009   1.1322232  )
       169           Sn  tau( 169) = (   0.7653714   0.4732494   0.0411033  )
       170           Sn  tau( 170) = (   0.6054474   0.2261830   0.1587972  )
       171           Sn  tau( 171) = (   0.4014129   0.4923710   0.0804187  )
       172           Sn  tau( 172) = (   0.4473355   0.4010248   1.1356382  )
       173           Sn  tau( 173) = (   0.5236279   0.2561949   0.1993430  )
       174           Sn  tau( 174) = (   0.7166058   0.4257566   0.0772360  )
       175           Sn  tau( 175) = (   0.5268061   0.3010868   1.0880169  )
       176           Sn  tau( 176) = (   0.6015737   0.4975704   0.1197935  )
       177           Sn  tau( 177) = (   0.4720245   0.3989405   0.1664138  )
       178           Sn  tau( 178) = (   0.3593262   0.2660594   1.1776796  )
       179           Sn  tau( 179) = (   0.5767763   0.5756472   0.1444465  )
       180           Sn  tau( 180) = (   0.7006271   0.4569178   1.1605515  )
       181           Sn  tau( 181) = (   0.5769099   0.2112114   0.0862920  )
       182           Sn  tau( 182) = (   0.6092002   0.5530123   0.2126348  )
       183           Sn  tau( 183) = (   0.5970094   0.2268640   1.1380376  )
       184           Sn  tau( 184) = (   0.6564359   0.2332034   1.0847103  )
       185           Sn  tau( 185) = (   0.6001976   0.3222145   1.0498367  )
       186           Sn  tau( 186) = (   0.6173912   0.4261296   1.0703168  )
       187           Sn  tau( 187) = (   0.7677758   0.2601669   0.0022474  )
       188           Sn  tau( 188) = (   0.7349310   0.2228361   0.1410015  )
       189           Sn  tau( 189) = (   0.6829193   0.4963884   0.0929373  )
       190           Sn  tau( 190) = (   0.5702789   0.4489107   1.1208692  )
       191           Sn  tau( 191) = (   0.5488613   0.1961590  -0.0007712  )
       192           Sn  tau( 192) = (   0.5683812   0.5516790   1.2526362  )
       193           Sn  tau( 193) = (   0.3891062   0.4952669   0.1615445  )
       194           Sn  tau( 194) = (   0.4559021   0.3912737   1.2163563  )
       195           Sn  tau( 195) = (   0.3847813   0.2827590   0.0559757  )
       196           Sn  tau( 196) = (   0.5267531   0.5002974   0.0875151  )
       197           Sn  tau( 197) = (   0.6745494   0.3093383   1.0451086  )
       198           Sn  tau( 198) = (   0.4289776   0.3458526   0.1035806  )
       199           Sn  tau( 199) = (   0.4071617   0.4264900   0.1168929  )
       200           Sn  tau( 200) = (   0.7148517   0.3910393   1.2117442  )

   Crystallographic axes

     site n.     atom                  positions (cryst. coord.)
         1           Sn  tau(   1) = (  0.6651612  0.4320540  0.1420802  )
         2           Sn  tau(   2) = (  0.4030360  0.3014702  0.9324640  )
         3           Sn  tau(   3) = (  0.6044670  0.1423893  0.8553080  )
         4           Sn  tau(   4) = (  0.6841744  0.3076842  0.1504256  )
         5           Sn  tau(   5) = (  0.5227610  0.3246304  0.8997200  )
         6           Sn  tau(   6) = (  0.6266332  0.5397985  0.1471094  )
         7           Sn  tau(   7) = (  0.7349159  0.2189376  0.8270600  )
         8           Sn  tau(   8) = (  0.4832399  0.2741085  0.9992920  )
         9           Sn  tau(   9) = (  0.4273242  0.1969604  0.9021000  )
        10           Sn  tau(  10) = (  0.7762869  0.4760148  0.0586830  )
        11           Sn  tau(  11) = (  0.5480624  0.4360395  0.1870396  )
        12           Sn  tau(  12) = (  0.8079597  0.3188005  0.0628602  )
        13           Sn  tau(  13) = (  0.6754894  0.3775182  0.8722940  )
        14           Sn  tau(  14) = (  0.6322308  0.5150690  0.9672300  )
        15           Sn  tau(  15) = (  0.4682365  0.1252976  0.1210788  )
        16           Sn  tau(  16) = (  0.6288233  0.5438408  0.0522106  )
        17           Sn  tau(  17) = (  0.6644177  0.1834007  0.0863300  )
        18           Sn  tau(  18) = (  0.4028268  0.2429555  0.1133958  )
        19           Sn  tau(  19) = (  0.7954715  0.2513674  0.8996120  )
        20           Sn  tau(  20) = (  0.6250076  0.1836386  0.0215832  )
        21           Sn  tau(  21) = (  0.4456293  0.2427569  0.9517420  )
        22           Sn  tau(  22) = (  0.6461908  0.4535008  0.9697780  )
        23           Sn  tau(  23) = (  0.4308930  0.2911376  0.1737002  )
        24           Sn  tau(  24) = (  0.5503533  0.2333082  0.0326360  )
        25           Sn  tau(  25) = (  0.5275470  0.2287661  0.9630320  )
        26           Sn  tau(  26) = (  0.4719615  0.2510881  0.0596026  )
        27           Sn  tau(  27) = (  0.5384625  0.1535726  0.9354460  )
        28           Sn  tau(  28) = (  0.6972423  0.2359492  0.0660886  )
        29           Sn  tau(  29) = (  0.6155161  0.2374683  0.0729498  )
        30           Sn  tau(  30) = (  0.6664188  0.3158627  0.9064940  )
        31           Sn  tau(  31) = (  0.6743528  0.1984811  0.1843722  )
        32           Sn  tau(  32) = (  0.7991789  0.1743728  0.0581034  )
        33           Sn  tau(  33) = (  0.4303814  0.1434123  0.0111003  )
        34           Sn  tau(  34) = (  0.5469282  0.2827714  0.1684572  )
        35           Sn  tau(  35) = (  0.4384413  0.3462605  0.0292472  )
        36           Sn  tau(  36) = (  0.5162081  0.2071301  0.9046040  )
        37           Sn  tau(  37) = (  0.7306137  0.2364163  0.1664544  )
        38           Sn  tau(  38) = (  0.7376026  0.4090248  0.9719040  )
        39           Sn  tau(  39) = (  0.6871585  0.1989047  0.9242060  )
        40           Sn  tau(  40) = (  0.6711923  0.3295959  0.0240112  )
        41           Sn  tau(  41) = (  0.6740932  0.1548957  0.1407316  )
        42           Sn  tau(  42) = (  0.4865667  0.3256475  0.1941104  )
        43           Sn  tau(  43) = (  0.5085262  0.3132304  0.0451520  )
        44           Sn  tau(  44) = (  0.6152539  0.3002720  0.1854494  )
        45           Sn  tau(  45) = (  0.6574238  0.1447095  0.9009220  )
        46           Sn  tau(  46) = (  0.5729001  0.2704940  0.9211060  )
        47           Sn  tau(  47) = (  0.7888128  0.1889953  0.8879460  )
        48           Sn  tau(  48) = (  0.5555402  0.3524745  0.1762864  )
        49           Sn  tau(  49) = (  0.3346649  0.3393938  0.9140060  )
        50           Sn  tau(  50) = (  0.6592032  0.3048053  0.0851070  )
        51           Sn  tau(  51) = (  0.5097536  0.3789020  0.9390260  )
        52           Sn  tau(  52) = (  0.5968481  0.2188459  0.9690060  )
        53           Sn  tau(  53) = (  0.3813966  0.2354341  0.8768300  )
        54           Sn  tau(  54) = (  0.4766569  0.1966492  0.8499420  )
        55           Sn  tau(  55) = (  0.7295174  0.3000799  0.0543098  )
        56           Sn  tau(  56) = (  0.4678710  0.1022590  0.9672940  )
        57           Sn  tau(  57) = (  0.6329163  0.4226162  0.9104800  )
        58           Sn  tau(  58) = (  0.7949700  0.2877763  0.0169778  )
        59           Sn  tau(  59) = (  0.3969545  0.2071181  0.9943560  )
        60           Sn  tau(  60) = (  0.6685913  0.2412356  0.1238970  )
        61           Sn  tau(  61) = (  0.6504577  0.2551936  0.9373720  )
        62           Sn  tau(  62) = (  0.5753246  0.4090270  0.9624220  )
        63           Sn  tau(  63) = (  0.6888673  0.2080490  0.9894440  )
        64           Sn  tau(  64) = (  0.7045436  0.3252110  0.8491380  )
        65           Sn  tau(  65) = (  0.5316501  0.4025664  0.0091615  )
        66           Sn  tau(  66) = (  0.5321214  0.3206121  0.1109890  )
        67           Sn  tau(  67) = (  0.5344880  0.1260511  0.0755986  )
        68           Sn  tau(  68) = (  0.7658629  0.1484442  0.9997080  )
        69           Sn  tau(  69) = (  0.4701141  0.2144197  0.0077598  )
        70           Sn  tau(  70) = (  0.6880255  0.5405275  0.1020626  )
        71           Sn  tau(  71) = (  0.3932143  0.3061564  0.8707400  )
        72           Sn  tau(  72) = (  0.5176498  0.3431807  0.9957400  )
        73           Sn  tau(  73) = (  0.6021382  0.2324438  0.1773960  )
        74           Sn  tau(  74) = (  0.4735065  0.2738051  0.1262618  )
        75           Sn  tau(  75) = (  0.7281237  0.4669132  0.0126932  )
        76           Sn  tau(  76) = (  0.7598217  0.2008065  0.9420280  )
        77           Sn  tau(  77) = (  0.7453248  0.3313682  0.9027840  )
        78           Sn  tau(  78) = (  0.6585051  0.1011959  0.9553660  )
        79           Sn  tau(  79) = (  0.7371288  0.4218850  0.1279276  )
        80           Sn  tau(  80) = (  0.5591694  0.3692351  0.0663572  )
        81           Sn  tau(  81) = (  0.7420988  0.2658057  0.1127478  )
        82           Sn  tau(  82) = (  0.6309757  0.2573457  0.8810140  )
        83           Sn  tau(  83) = (  0.7325594  0.2680516  0.8722800  )
        84           Sn  tau(  84) = (  0.4776121  0.3175542  0.8483640  )
        85           Sn  tau(  85) = (  0.4655398  0.1969716  0.1178000  )
        86           Sn  tau(  86) = (  0.6423524  0.3710925  0.9497560  )
        87           Sn  tau(  87) = (  0.5245932  0.4592062  0.1398820  )
        88           Sn  tau(  88) = (  0.7283631  0.4795114  0.1035326  )
        89           Sn  tau(  89) = (  0.4631127  0.1402355  0.9011580  )
        90           Sn  tau(  90) = (  0.4600808  0.4118819  0.1212344  )
        91           Sn  tau(  91) = (  0.4866953  0.2522558  0.2013980  )
        92           Sn  tau(  92) = (  0.6702195  0.2613683  0.2058660  )
        93           Sn  tau(  93) = (  0.5757379  0.4815042  0.9342460  )
        94           Sn  tau(  94) = (  0.7162026  0.5249565  0.0422432  )
        95           Sn  tau(  95) = (  0.7536141  0.3511562  0.0126099  )
        96           Sn  tau(  96) = (  0.3330191  0.2786899  0.9008240  )
        97           Sn  tau(  97) = (  0.6397968  0.3045652  0.9727780  )
        98           Sn  tau(  98) = (  0.3721722  0.3157077  0.1418436  )
        99           Sn  tau(  99) = (  0.5616192  0.2941605  0.9967040  )
       100           Sn  tau( 100) = (  0.5921805  0.3089109  0.0483632  )
       101           Sn  tau( 101) = (  0.4842077  0.3914829  0.1775548  )
       102           Sn  tau( 102) = (  0.3701383  0.3179100  0.0371854  )
       103           Sn  tau( 103) = (  0.5366756  0.1558467  0.8711180  )
       104           Sn  tau( 104) = (  0.4492207  0.4230506  0.9228880  )
       105           Sn  tau( 105) = (  0.6047039  0.4004885  0.1614422  )
       106           Sn  tau( 106) = (  0.7379252  0.1348310  0.8952560  )
       107           Sn  tau( 107) = (  0.3535874  0.2831818  0.0914860  )
       108           Sn  tau( 108) = (  0.4495509  0.2630424  0.8926080  )
       109           Sn  tau( 109) = (  0.3316128  0.2915479  0.9632920  )
       110           Sn  tau( 110) = (  0.5812045  0.1097255  0.9039200  )
       111           Sn  tau( 111) = (  0.5719398  0.4911668  0.0561992  )
       112           Sn  tau( 112) = (  0.5983628  0.3229454  0.8870540  )
       113           Sn  tau( 113) = (  0.3358142  0.3440254  0.0825256  )
       114           Sn  tau( 114) = (  0.4638663  0.1721550  0.9591080  )
       115           Sn  tau( 115) = (  0.6439049  0.2571034  0.0190259  )
       116           Sn  tau( 116) = (  0.6011150  0.3448177  0.1190192  )
       117           Sn  tau( 117) = (  0.5986980  0.3639640  0.0071317  )
       118           Sn  tau( 118) = (  0.7243205  0.2757455  0.9347080  )
       119           Sn  tau( 119) = (  0.6715502  0.5475600  0.0035938  )
       120           Sn  tau( 120) = (  0.4086840  0.3751130  0.1653160  )
       121           Sn  tau( 121) = (  0.7296333  0.1381962  0.9514760  )
       122           Sn  tau( 122) = (  0.3355823  0.3839374  0.1231156  )
       123           Sn  tau( 123) = (  0.7952296  0.2706381  0.9554980  )
       124           Sn  tau( 124) = (  0.3987262  0.2777928  0.9871100  )
       125           Sn  tau( 125) = (  0.4396032  0.2206138  0.1696786  )
       126           Sn  tau( 126) = (  0.4562171  0.4240895  0.0316652  )
       127           Sn  tau( 127) = (  0.7216566  0.1772681  0.0426156  )
       128           Sn  tau( 128) = (  0.3868808  0.3940256  0.9344700  )
       129           Sn  tau( 129) = (  0.5794126  0.1010420  0.9678720  )
       130           Sn  tau( 130) = (  0.4378717  0.3966623  0.9754120  )
       131           Sn  tau( 131) = (  0.5039115  0.2978230  0.9453600  )
       132           Sn  tau( 132) = (  0.7151239  0.2735781  0.9975260  )
       133           Sn  tau( 133) = (  0.5970674  0.2785808  0.1264598  )
       134           Sn  tau( 134) = (  0.5424874  0.3481266  0.8390120  )
       135           Sn  tau( 135) = (  0.4457729  0.1321773  0.0688598  )
       136           Sn  tau( 136) = (  0.6148784  0.1292035  0.1113784  )
       137           Sn  tau( 137) = (  0.6499738  0.4914636  0.0919220  )
       138           Sn  tau( 138) = (  0.4977393  0.1804698  0.0604784  )
       139           Sn  tau( 139) = (  0.6757138  0.1356211  0.0096728  )
       140           Sn  tau( 140) = (  0.6253906  0.1592300  0.9540080  )
       141           Sn  tau( 141) = (  0.6371151  0.3686719  0.0657440  )
       142           Sn  tau( 142) = (  0.3899883  0.1786702  0.1223758  )
       143           Sn  tau( 143) = (  0.7779856  0.2393017  0.0617262  )
       144           Sn  tau( 144) = (  0.5790270  0.2129309  0.8488020  )
       145           Sn  tau( 145) = (  0.6818381  0.4866138  0.1625214  )
       146           Sn  tau( 146) = (  0.4171875  0.1910564  0.0663256  )
       147           Sn  tau( 147) = (  0.6746023  0.3689972  0.1208910  )
       148           Sn  tau( 148) = (  0.5009754  0.1222447  0.0166379  )
       149           Sn  tau( 149) = (  0.3633057  0.3840989  0.0288362  )
       150           Sn  tau( 150) = (  0.8059862  0.1503246  0.9377040  )
       151           Sn  tau( 151) = (  0.7976465  0.3759053  0.0816512  )
       152           Sn  tau( 152) = (  0.6518615  0.4812837  0.0291232  )
       153           Sn  tau( 153) = (  0.5333286  0.1651762  0.1184200  )
       154           Sn  tau( 154) = (  0.6760389  0.4016802  0.0083461  )
       155           Sn  tau( 155) = (  0.7447275  0.3349172  0.1106610  )
       156           Sn  tau( 156) = (  0.5406023  0.3952698  0.1231496  )
       157           Sn  tau( 157) = (  0.5001890  0.3961581  0.8781700  )
       158           Sn  tau( 158) = (  0.5062579  0.4496724  0.9655800  )
       159           Sn  tau( 159) = (  0.6030153  0.1217353  0.0160213  )
       160           Sn  tau( 160) = (  0.5984687  0.4253926  0.0330344  )
       161           Sn  tau( 161) = (  0.7128884  0.1590908  0.8440640  )
       162           Sn  tau( 162) = (  0.5418221  0.2337032  0.0953044  )
       163           Sn  tau( 163) = (  0.5751104  0.3375342  0.9469200  )
       164           Sn  tau( 164) = (  0.3764114  0.3454245  0.9803760  )
       165           Sn  tau( 165) = (  0.5005091  0.4770647  0.0244660  )
       166           Sn  tau( 166) = (  0.4687002  0.2614338  0.8270880  )
       167           Sn  tau( 167) = (  0.4844219  0.3729150  0.0736692  )
       168           Sn  tau( 168) = (  0.5153941  0.4540573  0.8984780  )
       169           Sn  tau( 169) = (  0.7653714  0.4098455  0.0326176  )
       170           Sn  tau( 170) = (  0.6054474  0.1958800  0.1260138  )
       171           Sn  tau( 171) = (  0.4014129  0.4264053  0.0638164  )
       172           Sn  tau( 172) = (  0.4473355  0.3472972  0.9011880  )
       173           Sn  tau( 173) = (  0.5236279  0.2218711  0.1581890  )
       174           Sn  tau( 174) = (  0.7166058  0.3687156  0.0612908  )
       175           Sn  tau( 175) = (  0.5268061  0.2607485  0.8633980  )
       176           Sn  tau( 176) = (  0.6015737  0.4309081  0.0950624  )
       177           Sn  tau( 177) = (  0.4720245  0.3454922  0.1320580  )
       178           Sn  tau( 178) = (  0.3593262  0.2304140  0.9345500  )
       179           Sn  tau( 179) = (  0.5767763  0.4985245  0.1146258  )
       180           Sn  tau( 180) = (  0.7006271  0.3957019  0.9209580  )
       181           Sn  tau( 181) = (  0.5769099  0.1829142  0.0684772  )
       182           Sn  tau( 182) = (  0.6092002  0.4789221  0.1687368  )
       183           Sn  tau( 183) = (  0.5970094  0.1964698  0.9030920  )
       184           Sn  tau( 184) = (  0.6564359  0.2019598  0.8607740  )
       185           Sn  tau( 185) = (  0.6001976  0.2790457  0.8331000  )
       186           Sn  tau( 186) = (  0.6173912  0.3690386  0.8493520  )
       187           Sn  tau( 187) = (  0.7677758  0.2253109  0.0017834  )
       188           Sn  tau( 188) = (  0.7349310  0.1929815  0.1118920  )
       189           Sn  tau( 189) = (  0.6829193  0.4298845  0.0737506  )
       190           Sn  tau( 190) = (  0.5702789  0.3887676  0.8894680  )
       191           Sn  tau( 191) = (  0.5488613  0.1698785 -0.0006120  )
       192           Sn  tau( 192) = (  0.5683812  0.4777675  0.9940320  )
       193           Sn  tau( 193) = (  0.3891062  0.4289132  0.1281940  )
       194           Sn  tau( 194) = (  0.4559021  0.3388525  0.9652420  )
       195           Sn  tau( 195) = (  0.3847813  0.2448762  0.0444196  )
       196           Sn  tau( 196) = (  0.5267531  0.4332697  0.0694478  )
       197           Sn  tau( 197) = (  0.6745494  0.2678945  0.8293480  )
       198           Sn  tau( 198) = (  0.4289776  0.2995168  0.0821966  )
       199           Sn  tau( 199) = (  0.4071617  0.3693507  0.0927606  )
       200           Sn  tau( 200) = (  0.7148517  0.3386495  0.9615820  )

     number of k points=     1  Marzari-Vanderbilt smearing, width (Ry)=  0.0200
                       cart. coord. in units 2pi/alat
        k(    1) = (   0.0000000   0.0000000   0.0000000), wk =   2.0000000

                       cryst. coord.
        k(    1) = (   0.0000000   0.0000000   0.0000000), wk =   2.0000000

     Dense  grid: 41432170 G-vectors     FFT dimensions: ( 480, 576, 625)

     Smooth grid: 14648303 G-vectors     FFT dimensions: ( 360, 400, 432)

     Dynamical RAM for                 wfc:     104.77 MB

     Dynamical RAM for     wfc (w. buffer):     104.77 MB

     Dynamical RAM for           str. fact:       1.41 MB

     Dynamical RAM for           local pot:       0.00 MB

     Dynamical RAM for          nlocal pot:     224.51 MB

     Dynamical RAM for                qrad:      19.12 MB

     Dynamical RAM for          rho,v,vnew:      16.89 MB

     Dynamical RAM for               rhoin:       5.63 MB

     Dynamical RAM for            rho*nmix:      22.58 MB

     Dynamical RAM for           G-vectors:       5.54 MB

     Dynamical RAM for          h,s,v(r/c):       5.27 MB

     Dynamical RAM for          <psi|beta>:      46.14 MB

     Dynamical RAM for                 psi:     419.08 MB

     Dynamical RAM for                hpsi:     419.08 MB

     Dynamical RAM for                spsi:     419.08 MB

     Dynamical RAM for      wfcinit/wfcrot:     298.68 MB

     Dynamical RAM for           addusdens:     544.66 MB

     Dynamical RAM for          addusforce:    1107.74 MB

     Dynamical RAM for         addusstress:     283.62 MB

     Estimated static dynamical RAM per process >     424.36 MB

     Estimated max dynamical RAM per process >       1.69 GB

     Estimated total dynamical RAM >     758.19 GB

     Initial potential from superposition of free atoms

     starting charge 2599.99167, renormalised to 2800.00000

     negative rho (up, down):  1.806E-01 0.000E+00
     Starting wfcs are 1800 atomic wfcs

     total cpu time spent up to now is      107.9 secs

     Self-consistent Calculation

     iteration #  1     ecut=    50.00 Ry     beta= 0.40
     Davidson diagonalization with overlap
     ethr =  1.00E-02,  avg # of iterations = 10.0

     negative rho (up, down):  2.097E+00 0.000E+00

     total cpu time spent up to now is      765.0 secs

     total energy              =  -31819.04813326 Ry
     Harris-Foulkes estimate   =  -31885.64637917 Ry
     estimated scf accuracy    <     287.55011085 Ry

     iteration #  2     ecut=    50.00 Ry     beta= 0.40
     Davidson diagonalization with overlap
     ethr =  1.00E-02,  avg # of iterations =  1.0

     negative rho (up, down):  7.149E+00 0.000E+00

     total cpu time spent up to now is     1091.9 secs

     total energy              =  -31745.88272391 Ry
     Harris-Foulkes estimate   =  -31825.06843994 Ry
     estimated scf accuracy    <     145.85093521 Ry

     iteration #  3     ecut=    50.00 Ry     beta= 0.40
     Davidson diagonalization with overlap
     ethr =  5.21E-03,  avg # of iterations =  3.0

     negative rho (up, down):  7.066E+00 0.000E+00

     total cpu time spent up to now is     1483.0 secs

     total energy              =  -31780.53024457 Ry
     Harris-Foulkes estimate   =  -31781.07716434 Ry
     estimated scf accuracy    <      24.81730302 Ry

     iteration #  4     ecut=    50.00 Ry     beta= 0.40
     Davidson diagonalization with overlap
     ethr =  8.86E-04,  avg # of iterations = 10.0

     negative rho (up, down):  7.783E+00 0.000E+00

     total cpu time spent up to now is     1855.6 secs

     total energy              =  -31780.41553347 Ry
     Harris-Foulkes estimate   =  -31781.22268188 Ry
     estimated scf accuracy    <      51.62777608 Ry

     iteration #  5     ecut=    50.00 Ry     beta= 0.40
     Davidson diagonalization with overlap
     ethr =  8.86E-04,  avg # of iterations =  4.0

     negative rho (up, down):  1.443E+01 0.000E+00

     total cpu time spent up to now is     2063.0 secs

     total energy              =  -31783.94758959 Ry
     Harris-Foulkes estimate   =  -31781.13799318 Ry
     estimated scf accuracy    <     105.27223890 Ry

     iteration #  6     ecut=    50.00 Ry     beta= 0.40
     Davidson diagonalization with overlap
     ethr =  8.86E-04,  avg # of iterations =  7.0

     negative rho (up, down):  1.248E+01 0.000E+00

     total cpu time spent up to now is     2280.9 secs

     total energy              =  -31770.11453776 Ry
     Harris-Foulkes estimate   =  -31786.14846684 Ry
     estimated scf accuracy    <     444.33785364 Ry

     iteration #  7     ecut=    50.00 Ry     beta= 0.40
     Davidson diagonalization with overlap
     ethr =  8.86E-04,  avg # of iterations =  6.0

     negative rho (up, down):  1.893E+01 0.000E+00

     total cpu time spent up to now is     2535.5 secs

     total energy              =  -31779.54303741 Ry
     Harris-Foulkes estimate   =  -31779.72487077 Ry
     estimated scf accuracy    <      16.72436604 Ry

     iteration #  8     ecut=    50.00 Ry     beta= 0.40
     Davidson diagonalization with overlap
     ethr =  5.97E-04,  avg # of iterations =  3.0

     negative rho (up, down):  9.415E+00 0.000E+00

     total cpu time spent up to now is     2769.8 secs

     total energy              =  -31779.49364242 Ry
     Harris-Foulkes estimate   =  -31779.66108445 Ry
     estimated scf accuracy    <      16.22228023 Ry

     iteration #  9     ecut=    50.00 Ry     beta= 0.40
     Davidson diagonalization with overlap
     ethr =  5.79E-04,  avg # of iterations =  4.0

     negative rho (up, down):  1.074E+01 0.000E+00

     total cpu time spent up to now is     3047.3 secs

     total energy              =  -31781.40755246 Ry
     Harris-Foulkes estimate   =  -31781.37916854 Ry
     estimated scf accuracy    <     138.04989337 Ry

     iteration # 10     ecut=    50.00 Ry     beta= 0.40
     Davidson diagonalization with overlap
     ethr =  5.79E-04,  avg # of iterations =  3.0

     negative rho (up, down):  1.713E+01 0.000E+00

     total cpu time spent up to now is     3288.1 secs

     total energy              =  -31788.07426512 Ry
     Harris-Foulkes estimate   =  -31781.61362327 Ry
     estimated scf accuracy    <     162.07513093 Ry

     iteration # 11     ecut=    50.00 Ry     beta= 0.40
     Davidson diagonalization with overlap
     ethr =  5.79E-04,  avg # of iterations =  8.0

     negative rho (up, down):  1.919E+01 0.000E+00

     total cpu time spent up to now is     3577.0 secs

     total energy              =  -31755.05165011 Ry
     Harris-Foulkes estimate   =  -31793.32952801 Ry
     estimated scf accuracy    <     927.70213822 Ry

     iteration # 12     ecut=    50.00 Ry     beta= 0.40
     Davidson diagonalization with overlap
     ethr =  5.79E-04,  avg # of iterations = 10.0

     negative rho (up, down):  1.424E+01 0.000E+00

     total cpu time spent up to now is     3928.5 secs

     total energy              =  -31780.94674405 Ry
     Harris-Foulkes estimate   =  -31779.82931349 Ry
     estimated scf accuracy    <      24.65030565 Ry

     iteration # 13     ecut=    50.00 Ry     beta= 0.40
     Davidson diagonalization with overlap
     ethr =  5.79E-04,  avg # of iterations =  8.0

     negative rho (up, down):  1.067E+01 0.000E+00

     total cpu time spent up to now is     4248.2 secs

     total energy              =  -31780.22314105 Ry
     Harris-Foulkes estimate   =  -31787.71748567 Ry
     estimated scf accuracy    <     541.31704752 Ry

     iteration # 14     ecut=    50.00 Ry     beta= 0.40
     Davidson diagonalization with overlap
     ethr =  5.79E-04,  avg # of iterations =  1.0

     negative rho (up, down):  8.994E+00 0.000E+00

     total cpu time spent up to now is     4468.4 secs

     total energy              =  -31776.31624087 Ry
     Harris-Foulkes estimate   =  -31781.83320252 Ry
     estimated scf accuracy    <     190.04932615 Ry

     iteration # 15     ecut=    50.00 Ry     beta= 0.40
     Davidson diagonalization with overlap
     ethr =  5.79E-04,  avg # of iterations =  4.0

     negative rho (up, down):  9.618E+00 0.000E+00

     total cpu time spent up to now is     4743.5 secs

     total energy              =  -31779.21622070 Ry
     Harris-Foulkes estimate   =  -31778.95047758 Ry
     estimated scf accuracy    <      26.07460217 Ry

     iteration # 16     ecut=    50.00 Ry     beta= 0.40
     Davidson diagonalization with overlap
     ethr =  5.79E-04,  avg # of iterations =  2.0

     negative rho (up, down):  9.690E+00 0.000E+00

     total cpu time spent up to now is     4984.0 secs

     total energy              =  -31777.51383547 Ry
     Harris-Foulkes estimate   =  -31779.54365065 Ry
     estimated scf accuracy    <      58.00204385 Ry

     iteration # 17     ecut=    50.00 Ry     beta= 0.40
     Davidson diagonalization with overlap
     ethr =  5.79E-04,  avg # of iterations =  7.0

     negative rho (up, down):  1.183E+01 0.000E+00

     total cpu time spent up to now is     5225.6 secs

     total energy              =  -31778.64607251 Ry
     Harris-Foulkes estimate   =  -31778.70123321 Ry
     estimated scf accuracy    <      15.60462731 Ry

     iteration # 18     ecut=    50.00 Ry     beta= 0.40
     Davidson diagonalization with overlap
     ethr =  5.57E-04,  avg # of iterations =  3.0

     negative rho (up, down):  9.555E+00 0.000E+00

     total cpu time spent up to now is     5446.7 secs

     total energy              =  -31778.83393508 Ry
     Harris-Foulkes estimate   =  -31778.67100526 Ry
     estimated scf accuracy    <      17.57634812 Ry

     iteration # 19     ecut=    50.00 Ry     beta= 0.40
     Davidson diagonalization with overlap
     ethr =  5.57E-04,  avg # of iterations =  1.0

     negative rho (up, down):  9.751E+00 0.000E+00

     total cpu time spent up to now is     5694.4 secs

     total energy              =  -31778.93953961 Ry
     Harris-Foulkes estimate   =  -31778.85953198 Ry
     estimated scf accuracy    <      20.27974651 Ry

     iteration # 20     ecut=    50.00 Ry     beta= 0.40
     Davidson diagonalization with overlap
     ethr =  5.57E-04,  avg # of iterations =  1.0

     negative rho (up, down):  1.019E+01 0.000E+00

     total cpu time spent up to now is     5914.8 secs

     total energy              =  -31779.24276947 Ry
     Harris-Foulkes estimate   =  -31778.97827037 Ry
     estimated scf accuracy    <      25.29318458 Ry

     iteration # 21     ecut=    50.00 Ry     beta= 0.40
     Davidson diagonalization with overlap
     ethr =  5.57E-04,  avg # of iterations =  3.0

     negative rho (up, down):  1.016E+01 0.000E+00

     total cpu time spent up to now is     6144.1 secs

     total energy              =  -31779.53577026 Ry
     Harris-Foulkes estimate   =  -31779.55286928 Ry
     estimated scf accuracy    <      57.74210175 Ry

     iteration # 22     ecut=    50.00 Ry     beta= 0.40
     Davidson diagonalization with overlap
     ethr =  5.57E-04,  avg # of iterations =  1.0

     negative rho (up, down):  1.082E+01 0.000E+00

     total cpu time spent up to now is     6387.1 secs

     total energy              =  -31780.06908241 Ry
     Harris-Foulkes estimate   =  -31779.54371784 Ry
     estimated scf accuracy    <      57.06180941 Ry

     iteration # 23     ecut=    50.00 Ry     beta= 0.40
     Davidson diagonalization with overlap
     ethr =  5.57E-04,  avg # of iterations =  3.0

     negative rho (up, down):  1.299E+01 0.000E+00

     total cpu time spent up to now is     6611.0 secs

     total energy              =  -31782.35300632 Ry
     Harris-Foulkes estimate   =  -31780.25422995 Ry
     estimated scf accuracy    <      91.05029112 Ry

     iteration # 24     ecut=    50.00 Ry     beta= 0.40
     Davidson diagonalization with overlap
     ethr =  5.57E-04,  avg # of iterations =  4.0

     negative rho (up, down):  1.136E+01 0.000E+00

     total cpu time spent up to now is     6839.8 secs

     total energy              =  -31780.91753079 Ry
     Harris-Foulkes estimate   =  -31783.25947712 Ry
     estimated scf accuracy    <     258.63487945 Ry

     iteration # 25     ecut=    50.00 Ry     beta= 0.40
     Davidson diagonalization with overlap
     ethr =  5.57E-04,  avg # of iterations =  2.0

     negative rho (up, down):  1.007E+01 0.000E+00

     total cpu time spent up to now is     7089.4 secs

     total energy              =  -31776.76565473 Ry
     Harris-Foulkes estimate   =  -31781.25898921 Ry
     estimated scf accuracy    <     150.49959432 Ry

     iteration # 26     ecut=    50.00 Ry     beta= 0.40
     Davidson diagonalization with overlap
     ethr =  5.57E-04,  avg # of iterations =  5.0

     negative rho (up, down):  1.108E+01 0.000E+00

     total cpu time spent up to now is     7345.9 secs

     total energy              =  -31779.00517913 Ry
     Harris-Foulkes estimate   =  -31778.73793277 Ry
     estimated scf accuracy    <      13.03769250 Ry

     iteration # 27     ecut=    50.00 Ry     beta= 0.40
     Davidson diagonalization with overlap
     ethr =  4.66E-04,  avg # of iterations =  1.0

     negative rho (up, down):  1.032E+01 0.000E+00

     total cpu time spent up to now is     7564.6 secs

     total energy              =  -31778.12540808 Ry
     Harris-Foulkes estimate   =  -31779.21005847 Ry
     estimated scf accuracy    <      35.97345991 Ry

     iteration # 28     ecut=    50.00 Ry     beta= 0.40
     Davidson diagonalization with overlap
     ethr =  4.66E-04,  avg # of iterations = 10.0

     negative rho (up, down):  9.511E+00 0.000E+00

     total cpu time spent up to now is     7827.2 secs

     total energy              =  -31778.45799746 Ry
     Harris-Foulkes estimate   =  -31778.57000893 Ry
     estimated scf accuracy    <       5.04199629 Ry

     iteration # 29     ecut=    50.00 Ry     beta= 0.40
     Davidson diagonalization with overlap
     ethr =  1.80E-04,  avg # of iterations = 13.0

     negative rho (up, down):  7.335E+00 0.000E+00

     total cpu time spent up to now is     8190.3 secs

     total energy              =  -31778.35747342 Ry
     Harris-Foulkes estimate   =  -31778.48467822 Ry
     estimated scf accuracy    <       2.47300742 Ry

     iteration # 30     ecut=    50.00 Ry     beta= 0.40
     Davidson diagonalization with overlap
     ethr =  8.83E-05,  avg # of iterations =  4.0

     negative rho (up, down):  6.798E+00 0.000E+00

     total cpu time spent up to now is     8433.8 secs

     total energy              =  -31778.32715526 Ry
     Harris-Foulkes estimate   =  -31778.38695205 Ry
     estimated scf accuracy    <       1.30927572 Ry

     iteration # 31     ecut=    50.00 Ry     beta= 0.40
     Davidson diagonalization with overlap
     ethr =  4.68E-05,  avg # of iterations = 14.0

     negative rho (up, down):  5.998E+00 0.000E+00

     total cpu time spent up to now is     8788.9 secs

     total energy              =  -31778.23282022 Ry
     Harris-Foulkes estimate   =  -31778.33554566 Ry
     estimated scf accuracy    <       1.01363532 Ry

     iteration # 32     ecut=    50.00 Ry     beta= 0.40
     Davidson diagonalization with overlap
     ethr =  3.62E-05,  avg # of iterations =  6.0

     negative rho (up, down):  5.361E+00 0.000E+00

     total cpu time spent up to now is     9033.1 secs

     total energy              =  -31778.13294424 Ry
     Harris-Foulkes estimate   =  -31778.24147742 Ry
     estimated scf accuracy    <       0.72547620 Ry

     iteration # 33     ecut=    50.00 Ry     beta= 0.40
     Davidson diagonalization with overlap
     ethr =  2.59E-05,  avg # of iterations = 19.0

     negative rho (up, down):  4.645E+00 0.000E+00

     total cpu time spent up to now is     9365.7 secs

     total energy              =  -31778.07882919 Ry
     Harris-Foulkes estimate   =  -31778.13868258 Ry
     estimated scf accuracy    <       0.52181731 Ry

     iteration # 34     ecut=    50.00 Ry     beta= 0.40
     Davidson diagonalization with overlap
     ethr =  1.86E-05,  avg # of iterations =  9.0

     negative rho (up, down):  3.300E+00 0.000E+00

     total cpu time spent up to now is     9637.4 secs

     total energy              =  -31777.94538688 Ry
     Harris-Foulkes estimate   =  -31778.08060971 Ry
     estimated scf accuracy    <       0.42574572 Ry

     iteration # 35     ecut=    50.00 Ry     beta= 0.40
     Davidson diagonalization with overlap
     ethr =  1.52E-05,  avg # of iterations = 19.0

     negative rho (up, down):  2.845E+00 0.000E+00

     total cpu time spent up to now is    10009.1 secs

     total energy              =  -31777.91539554 Ry
     Harris-Foulkes estimate   =  -31777.95201793 Ry
     estimated scf accuracy    <       0.22005469 Ry

     iteration # 36     ecut=    50.00 Ry     beta= 0.40
     Davidson diagonalization with overlap
     ethr =  7.86E-06,  avg # of iterations = 27.0

     negative rho (up, down):  2.577E+00 0.000E+00

     total cpu time spent up to now is    10511.1 secs

     total energy              =  -31777.89050248 Ry
     Harris-Foulkes estimate   =  -31777.91631305 Ry
     estimated scf accuracy    <       0.17947512 Ry

     iteration # 37     ecut=    50.00 Ry     beta= 0.40
     Davidson diagonalization with overlap
     ethr =  6.41E-06,  avg # of iterations = 30.0

     negative rho (up, down):  1.923E+00 0.000E+00

     total cpu time spent up to now is    10979.3 secs

     total energy              =  -31777.82034079 Ry
     Harris-Foulkes estimate   =  -31777.89073052 Ry
     estimated scf accuracy    <       0.15193553 Ry

     iteration # 38     ecut=    50.00 Ry     beta= 0.40
     Davidson diagonalization with overlap
     ethr =  5.43E-06,  avg # of iterations = 26.0

     negative rho (up, down):  1.588E+00 0.000E+00

     total cpu time spent up to now is    11499.9 secs

     total energy              =  -31777.79134765 Ry
     Harris-Foulkes estimate   =  -31777.82246571 Ry
     estimated scf accuracy    <       0.07075881 Ry

     iteration # 39     ecut=    50.00 Ry     beta= 0.40
     Davidson diagonalization with overlap
     ethr =  2.53E-06,  avg # of iterations = 36.0

     negative rho (up, down):  1.233E+00 0.000E+00

     total cpu time spent up to now is    12064.6 secs

     total energy              =  -31777.76966767 Ry
     Harris-Foulkes estimate   =  -31777.79204373 Ry
     estimated scf accuracy    <       0.04198639 Ry

     iteration # 40     ecut=    50.00 Ry     beta= 0.40
     Davidson diagonalization with overlap
     ethr =  1.50E-06,  avg # of iterations = 34.0

     negative rho (up, down):  1.102E+00 0.000E+00

     total cpu time spent up to now is    12620.9 secs

     total energy              =  -31777.75561624 Ry
     Harris-Foulkes estimate   =  -31777.77008855 Ry
     estimated scf accuracy    <       0.01936217 Ry

     iteration # 41     ecut=    50.00 Ry     beta= 0.40
     Davidson diagonalization with overlap
     ethr =  6.92E-07,  avg # of iterations = 29.0

     negative rho (up, down):  7.199E-01 0.000E+00

     total cpu time spent up to now is    13166.9 secs

     total energy              =  -31777.74905176 Ry
     Harris-Foulkes estimate   =  -31777.75591602 Ry
     estimated scf accuracy    <       0.01082909 Ry

     iteration # 42     ecut=    50.00 Ry     beta= 0.40
     Davidson diagonalization with overlap
     c_bands:  1 eigenvalues not converged
     ethr =  3.87E-07,  avg # of iterations = 40.0

     negative rho (up, down):  5.311E-01 0.000E+00

     total cpu time spent up to now is    13691.9 secs

     total energy              =  -31777.74806756 Ry
     Harris-Foulkes estimate   =  -31777.74937767 Ry
     estimated scf accuracy    <       0.00452021 Ry

     iteration # 43     ecut=    50.00 Ry     beta= 0.40
     Davidson diagonalization with overlap
     ethr =  1.61E-07,  avg # of iterations = 29.0

     negative rho (up, down):  3.459E-01 0.000E+00

     total cpu time spent up to now is    14199.8 secs

     total energy              =  -31777.74677428 Ry
     Harris-Foulkes estimate   =  -31777.74816653 Ry
     estimated scf accuracy    <       0.00296073 Ry

     iteration # 44     ecut=    50.00 Ry     beta= 0.40
     Davidson diagonalization with overlap
     ethr =  1.06E-07,  avg # of iterations = 29.0

     negative rho (up, down):  2.822E-01 0.000E+00

     total cpu time spent up to now is    14724.1 secs

     total energy              =  -31777.74679911 Ry
     Harris-Foulkes estimate   =  -31777.74686737 Ry
     estimated scf accuracy    <       0.00093333 Ry

     iteration # 45     ecut=    50.00 Ry     beta= 0.40
     Davidson diagonalization with overlap
     c_bands:  2 eigenvalues not converged
     ethr =  3.33E-08,  avg # of iterations = 20.0

     negative rho (up, down):  1.463E-01 0.000E+00

     total cpu time spent up to now is    15156.7 secs

     total energy              =  -31777.74701068 Ry
     Harris-Foulkes estimate   =  -31777.74680578 Ry
     estimated scf accuracy    <       0.00062616 Ry

     iteration # 46     ecut=    50.00 Ry     beta= 0.40
     Davidson diagonalization with overlap
     c_bands:  3 eigenvalues not converged
     ethr =  2.24E-08,  avg # of iterations = 20.0

     negative rho (up, down):  1.204E-01 0.000E+00

     total cpu time spent up to now is    15581.8 secs

     total energy              =  -31777.74708743 Ry
     Harris-Foulkes estimate   =  -31777.74703962 Ry
     estimated scf accuracy    <       0.00016224 Ry

     iteration # 47     ecut=    50.00 Ry     beta= 0.40
     Davidson diagonalization with overlap
     ethr =  5.79E-09,  avg # of iterations = 11.0

     negative rho (up, down):  7.931E-02 0.000E+00

     total cpu time spent up to now is    15977.8 secs

     total energy              =  -31777.74709429 Ry
     Harris-Foulkes estimate   =  -31777.74709066 Ry
     estimated scf accuracy    <       0.00010711 Ry

     iteration # 48     ecut=    50.00 Ry     beta= 0.40
     Davidson diagonalization with overlap
     c_bands:  4 eigenvalues not converged
     ethr =  3.83E-09,  avg # of iterations = 20.0

     negative rho (up, down):  7.793E-02 0.000E+00

     total cpu time spent up to now is    16334.5 secs

     total energy              =  -31777.74708247 Ry
     Harris-Foulkes estimate   =  -31777.74709802 Ry
     estimated scf accuracy    <       0.00004128 Ry

     iteration # 49     ecut=    50.00 Ry     beta= 0.40
     Davidson diagonalization with overlap
     ethr =  1.47E-09,  avg # of iterations = 14.0

     negative rho (up, down):  5.942E-02 0.000E+00

     total cpu time spent up to now is    16757.8 secs

     total energy              =  -31777.74704423 Ry
     Harris-Foulkes estimate   =  -31777.74708359 Ry
     estimated scf accuracy    <       0.00002451 Ry

     iteration # 50     ecut=    50.00 Ry     beta= 0.40
     Davidson diagonalization with overlap
     ethr =  8.75E-10,  avg # of iterations =  5.0

     negative rho (up, down):  5.594E-02 0.000E+00

     total cpu time spent up to now is    17068.6 secs

     total energy              =  -31777.74703997 Ry
     Harris-Foulkes estimate   =  -31777.74704517 Ry
     estimated scf accuracy    <       0.00000715 Ry

     iteration # 51     ecut=    50.00 Ry     beta= 0.40
     Davidson diagonalization with overlap
     ethr =  2.55E-10,  avg # of iterations =  1.0

     negative rho (up, down):  4.622E-02 0.000E+00

     total cpu time spent up to now is    17448.6 secs

     total energy              =  -31777.74702996 Ry
     Harris-Foulkes estimate   =  -31777.74704007 Ry
     estimated scf accuracy    <       0.00000467 Ry

     iteration # 52     ecut=    50.00 Ry     beta= 0.40
     Davidson diagonalization with overlap
     ethr =  1.67E-10,  avg # of iterations =  2.0

     negative rho (up, down):  4.357E-02 0.000E+00

     total cpu time spent up to now is    17859.5 secs

     total energy              =  -31777.74702918 Ry
     Harris-Foulkes estimate   =  -31777.74703010 Ry
     estimated scf accuracy    <       0.00000151 Ry

     iteration # 53     ecut=    50.00 Ry     beta= 0.40
     Davidson diagonalization with overlap
     ethr =  5.40E-11,  avg # of iterations =  2.0

     negative rho (up, down):  4.284E-02 0.000E+00

     total cpu time spent up to now is    18224.3 secs

     total energy              =  -31777.74702925 Ry
     Harris-Foulkes estimate   =  -31777.74702922 Ry
     estimated scf accuracy    <       0.00000046 Ry

     iteration # 54     ecut=    50.00 Ry     beta= 0.40
     Davidson diagonalization with overlap
     ethr =  1.66E-11,  avg # of iterations =  2.0

     negative rho (up, down):  4.240E-02 0.000E+00

     total cpu time spent up to now is    18702.8 secs

     total energy              =  -31777.74702924 Ry
     Harris-Foulkes estimate   =  -31777.74702927 Ry
     estimated scf accuracy    <       0.00000019 Ry

     iteration # 55     ecut=    50.00 Ry     beta= 0.40
     Davidson diagonalization with overlap
     ethr =  6.64E-12,  avg # of iterations =  2.0

     negative rho (up, down):  4.206E-02 0.000E+00

     total cpu time spent up to now is    19034.1 secs

     total energy              =  -31777.74702947 Ry
     Harris-Foulkes estimate   =  -31777.74702925 Ry
     estimated scf accuracy    <       0.00000006 Ry

     iteration # 56     ecut=    50.00 Ry     beta= 0.40
     Davidson diagonalization with overlap
     ethr =  2.22E-12,  avg # of iterations =  2.0

     negative rho (up, down):  4.194E-02 0.000E+00

     total cpu time spent up to now is    19224.2 secs

     End of self-consistent calculation

          k = 0.0000 0.0000 0.0000 (****** PWs)   bands (ev):

   -25.0452 -25.0093 -24.9340 -24.8961 -24.8907 -24.8884 -24.8810 -24.8800
   -24.8641 -24.8584 -24.8545 -24.8479 -24.8444 -24.8418 -24.8349 -24.8326
   -24.8319 -24.8273 -24.8235 -24.8217 -24.8200 -24.8157 -24.8129 -24.8089
   -24.8070 -24.8057 -24.8025 -24.8011 -24.8006 -24.7990 -24.7986 -24.7964
   -24.7955 -24.7945 -24.7928 -24.7926 -24.7921 -24.7911 -24.7900 -24.7889
   -24.7865 -24.7859 -24.7819 -24.7807 -24.7793 -24.7769 -24.7756 -24.7746
   -24.7740 -24.7728 -24.7726 -24.7706 -24.7698 -24.7680 -24.7668 -24.7659
   -24.7642 -24.7634 -24.7615 -24.7608 -24.7594 -24.7579 -24.7571 -24.7567
   -24.7562 -24.7554 -24.7549 -24.7539 -24.7521 -24.7515 -24.7509 -24.7500
   -24.7494 -24.7479 -24.7470 -24.7466 -24.7461 -24.7459 -24.7456 -24.7441
   -24.7438 -24.7432 -24.7425 -24.7421 -24.7415 -24.7404 -24.7400 -24.7398
   -24.7393 -24.7390 -24.7379 -24.7368 -24.7364 -24.7357 -24.7347 -24.7339
   -24.7334 -24.7329 -24.7321 -24.7311 -24.7306 -24.7298 -24.7295 -24.7289
   -24.7286 -24.7280 -24.7278 -24.7276 -24.7272 -24.7266 -24.7263 -24.7252
   -24.7251 -24.7247 -24.7240 -24.7238 -24.7232 -24.7224 -24.7217 -24.7213
   -24.7211 -24.7209 -24.7203 -24.7195 -24.7186 -24.7182 -24.7173 -24.7169
   -24.7165 -24.7163 -24.7158 -24.7154 -24.7150 -24.7141 -24.7135 -24.7132
   -24.7124 -24.7123 -24.7118 -24.7115 -24.7112 -24.7105 -24.7104 -24.7098
   -24.7092 -24.7085 -24.7082 -24.7073 -24.7066 -24.7065 -24.7060 -24.7051
   -24.7048 -24.7045 -24.7037 -24.7036 -24.7031 -24.7023 -24.7019 -24.7015
   -24.7014 -24.7008 -24.7005 -24.6993 -24.6989 -24.6988 -24.6984 -24.6983
   -24.6979 -24.6973 -24.6966 -24.6965 -24.6962 -24.6958 -24.6954 -24.6950
   -24.6948 -24.6941 -24.6938 -24.6933 -24.6932 -24.6927 -24.6923 -24.6912
   -24.6907 -24.6904 -24.6900 -24.6896 -24.6891 -24.6886 -24.6881 -24.6877
   -24.6874 -24.6869 -24.6864 -24.6860 -24.6858 -24.6855 -24.6852 -24.6846
   -24.6840 -24.6839 -24.6833 -24.6827 -24.6825 -24.6824 -24.6816 -24.6807
   -24.6804 -24.6801 -24.6795 -24.6792 -24.6791 -24.6786 -24.6784 -24.6780
   -24.6774 -24.6771 -24.6767 -24.6762 -24.6757 -24.6751 -24.6745 -24.6736
   -24.6736 -24.6733 -24.6731 -24.6727 -24.6720 -24.6715 -24.6710 -24.6705
   -24.6702 -24.6700 -24.6697 -24.6690 -24.6689 -24.6688 -24.6681 -24.6674
   -24.6672 -24.6670 -24.6666 -24.6662 -24.6655 -24.6652 -24.6650 -24.6645
   -24.6638 -24.6637 -24.6634 -24.6632 -24.6627 -24.6622 -24.6619 -24.6617
   -24.6615 -24.6605 -24.6601 -24.6600 -24.6596 -24.6591 -24.6587 -24.6584
   -24.6580 -24.6572 -24.6570 -24.6567 -24.6563 -24.6560 -24.6555 -24.6552
   -24.6544 -24.6542 -24.6539 -24.6537 -24.6533 -24.6527 -24.6523 -24.6519
   -24.6515 -24.6512 -24.6509 -24.6505 -24.6502 -24.6498 -24.6492 -24.6492
   -24.6487 -24.6482 -24.6478 -24.6474 -24.6470 -24.6468 -24.6465 -24.6462
   -24.6458 -24.6455 -24.6449 -24.6442 -24.6441 -24.6438 -24.6437 -24.6430
   -24.6428 -24.6421 -24.6417 -24.6413 -24.6411 -24.6407 -24.6405 -24.6402
   -24.6399 -24.6393 -24.6390 -24.6386 -24.6382 -24.6381 -24.6376 -24.6374
   -24.6371 -24.6364 -24.6363 -24.6360 -24.6355 -24.6350 -24.6347 -24.6342
   -24.6341 -24.6337 -24.6335 -24.6333 -24.6329 -24.6322 -24.6321 -24.6319
   -24.6316 -24.6314 -24.6310 -24.6306 -24.6305 -24.6299 -24.6293 -24.6288
   -24.6287 -24.6284 -24.6281 -24.6276 -24.6268 -24.6265 -24.6261 -24.6257
   -24.6255 -24.6254 -24.6249 -24.6248 -24.6244 -24.6240 -24.6236 -24.6234
   -24.6230 -24.6224 -24.6222 -24.6219 -24.6215 -24.6214 -24.6207 -24.6206
   -24.6202 -24.6196 -24.6195 -24.6188 -24.6187 -24.6186 -24.6177 -24.6173
   -24.6166 -24.6166 -24.6163 -24.6158 -24.6154 -24.6150 -24.6148 -24.6144
   -24.6137 -24.6135 -24.6133 -24.6129 -24.6128 -24.6126 -24.6125 -24.6117
   -24.6113 -24.6109 -24.6106 -24.6101 -24.6096 -24.6094 -24.6089 -24.6087
   -24.6084 -24.6078 -24.6076 -24.6070 -24.6069 -24.6066 -24.6064 -24.6062
   -24.6061 -24.6051 -24.6048 -24.6046 -24.6040 -24.6037 -24.6032 -24.6031
   -24.6028 -24.6025 -24.6023 -24.6022 -24.6011 -24.6005 -24.5999 -24.5998
   -24.5994 -24.5993 -24.5991 -24.5988 -24.5982 -24.5979 -24.5976 -24.5973
   -24.5970 -24.5963 -24.5959 -24.5955 -24.5951 -24.5948 -24.5945 -24.5944
   -24.5940 -24.5935 -24.5932 -24.5928 -24.5926 -24.5923 -24.5922 -24.5919
   -24.5914 -24.5911 -24.5908 -24.5902 -24.5900 -24.5899 -24.5895 -24.5890
   -24.5886 -24.5882 -24.5880 -24.5878 -24.5871 -24.5868 -24.5864 -24.5862
   -24.5858 -24.5856 -24.5851 -24.5847 -24.5847 -24.5839 -24.5833 -24.5831
   -24.5824 -24.5823 -24.5820 -24.5818 -24.5813 -24.5812 -24.5809 -24.5805
   -24.5799 -24.5793 -24.5791 -24.5790 -24.5783 -24.5776 -24.5769 -24.5766
   -24.5765 -24.5761 -24.5757 -24.5754 -24.5751 -24.5745 -24.5743 -24.5741
   -24.5738 -24.5733 -24.5731 -24.5727 -24.5723 -24.5720 -24.5717 -24.5711
   -24.5707 -24.5706 -24.5702 -24.5699 -24.5696 -24.5688 -24.5686 -24.5680
   -24.5673 -24.5670 -24.5666 -24.5664 -24.5661 -24.5656 -24.5652 -24.5648
   -24.5644 -24.5643 -24.5640 -24.5637 -24.5633 -24.5630 -24.5626 -24.5624
   -24.5619 -24.5613 -24.5611 -24.5609 -24.5606 -24.5604 -24.5603 -24.5594
   -24.5590 -24.5589 -24.5586 -24.5581 -24.5579 -24.5576 -24.5572 -24.5569
   -24.5567 -24.5561 -24.5556 -24.5552 -24.5548 -24.5544 -24.5543 -24.5538
   -24.5533 -24.5531 -24.5529 -24.5525 -24.5519 -24.5518 -24.5515 -24.5513
   -24.5511 -24.5509 -24.5500 -24.5494 -24.5490 -24.5488 -24.5484 -24.5478
   -24.5474 -24.5472 -24.5471 -24.5470 -24.5466 -24.5459 -24.5456 -24.5453
   -24.5449 -24.5446 -24.5442 -24.5435 -24.5435 -24.5433 -24.5427 -24.5426
   -24.5423 -24.5420 -24.5419 -24.5415 -24.5408 -24.5406 -24.5403 -24.5400
   -24.5394 -24.5393 -24.5390 -24.5383 -24.5378 -24.5377 -24.5372 -24.5369
   -24.5365 -24.5361 -24.5355 -24.5353 -24.5351 -24.5347 -24.5341 -24.5339
   -24.5332 -24.5327 -24.5323 -24.5318 -24.5314 -24.5310 -24.5308 -24.5307
   -24.5303 -24.5297 -24.5294 -24.5290 -24.5285 -24.5281 -24.5275 -24.5271
   -24.5266 -24.5266 -24.5259 -24.5255 -24.5251 -24.5249 -24.5244 -24.5239
   -24.5236 -24.5227 -24.5226 -24.5218 -24.5215 -24.5211 -24.5209 -24.5206
   -24.5202 -24.5200 -24.5198 -24.5193 -24.5190 -24.5188 -24.5183 -24.5180
   -24.5174 -24.5172 -24.5170 -24.5165 -24.5164 -24.5162 -24.5156 -24.5153
   -24.5149 -24.5146 -24.5138 -24.5136 -24.5135 -24.5131 -24.5127 -24.5121
   -24.5115 -24.5113 -24.5110 -24.5108 -24.5102 -24.5098 -24.5095 -24.5089
   -24.5086 -24.5082 -24.5076 -24.5073 -24.5073 -24.5068 -24.5064 -24.5057
   -24.5054 -24.5049 -24.5044 -24.5040 -24.5036 -24.5034 -24.5031 -24.5028
   -24.5027 -24.5021 -24.5016 -24.5014 -24.5013 -24.5005 -24.5004 -24.5000
   -24.4996 -24.4993 -24.4991 -24.4990 -24.4987 -24.4982 -24.4980 -24.4976
   -24.4973 -24.4971 -24.4968 -24.4961 -24.4960 -24.4956 -24.4950 -24.4945
   -24.4938 -24.4931 -24.4925 -24.4923 -24.4922 -24.4918 -24.4913 -24.4908
   -24.4906 -24.4905 -24.4901 -24.4897 -24.4891 -24.4886 -24.4883 -24.4878
   -24.4877 -24.4874 -24.4869 -24.4867 -24.4863 -24.4856 -24.4854 -24.4852
   -24.4847 -24.4844 -24.4840 -24.4834 -24.4828 -24.4826 -24.4824 -24.4821
   -24.4817 -24.4813 -24.4809 -24.4805 -24.4804 -24.4797 -24.4790 -24.4786
   -24.4784 -24.4780 -24.4775 -24.4772 -24.4765 -24.4762 -24.4759 -24.4755
   -24.4752 -24.4751 -24.4747 -24.4746 -24.4740 -24.4738 -24.4735 -24.4731
   -24.4726 -24.4719 -24.4713 -24.4710 -24.4706 -24.4698 -24.4695 -24.4682
   -24.4681 -24.4680 -24.4670 -24.4668 -24.4666 -24.4662 -24.4656 -24.4652
   -24.4650 -24.4645 -24.4641 -24.4639 -24.4636 -24.4628 -24.4624 -24.4622
   -24.4617 -24.4613 -24.4608 -24.4606 -24.4603 -24.4598 -24.4596 -24.4590
   -24.4585 -24.4579 -24.4577 -24.4568 -24.4565 -24.4562 -24.4561 -24.4558
   -24.4555 -24.4553 -24.4549 -24.4545 -24.4539 -24.4535 -24.4527 -24.4522
   -24.4518 -24.4518 -24.4511 -24.4506 -24.4505 -24.4499 -24.4493 -24.4482
   -24.4481 -24.4474 -24.4472 -24.4468 -24.4467 -24.4465 -24.4461 -24.4457
   -24.4455 -24.4446 -24.4441 -24.4440 -24.4438 -24.4436 -24.4433 -24.4425
   -24.4421 -24.4418 -24.4416 -24.4410 -24.4404 -24.4400 -24.4394 -24.4388
   -24.4380 -24.4374 -24.4372 -24.4371 -24.4361 -24.4356 -24.4348 -24.4343
   -24.4334 -24.4328 -24.4324 -24.4318 -24.4308 -24.4302 -24.4298 -24.4292
   -24.4290 -24.4285 -24.4277 -24.4267 -24.4259 -24.4255 -24.4250 -24.4240
   -24.4236 -24.4234 -24.4224 -24.4221 -24.4213 -24.4211 -24.4207 -24.4193
   -24.4187 -24.4182 -24.4173 -24.4170 -24.4166 -24.4160 -24.4159 -24.4147
   -24.4133 -24.4130 -24.4123 -24.4118 -24.4115 -24.4111 -24.4107 -24.4085
   -24.4074 -24.4070 -24.4063 -24.4056 -24.4034 -24.4027 -24.4018 -24.4015
   -24.4011 -24.4009 -24.4003 -24.3998 -24.3997 -24.3991 -24.3974 -24.3965
   -24.3962 -24.3951 -24.3948 -24.3944 -24.3940 -24.3938 -24.3934 -24.3933
   -24.3925 -24.3922 -24.3920 -24.3889 -24.3883 -24.3874 -24.3869 -24.3867
   -24.3862 -24.3843 -24.3837 -24.3826 -24.3814 -24.3807 -24.3794 -24.3793
   -24.3787 -24.3778 -24.3771 -24.3770 -24.3766 -24.3762 -24.3758 -24.3749
   -24.3744 -24.3724 -24.3723 -24.3721 -24.3692 -24.3687 -24.3676 -24.3647
   -24.3640 -24.3638 -24.3632 -24.3621 -24.3613 -24.3608 -24.3579 -24.3546
   -24.3546 -24.3534 -24.3533 -24.3528 -24.3468 -24.3456 -24.3424 -24.3412
   -24.3410 -24.3400 -24.3394 -24.3393 -24.3379 -24.3371 -24.3340 -24.3338
   -24.3282 -24.3262 -24.3248 -24.3233 -24.3172 -24.3140 -24.3119 -24.3104
   -24.3056 -24.3054 -24.3026 -24.2990 -24.2949 -24.2873 -24.2862 -24.2814
   -24.2744 -24.2735 -24.2725 -24.2702 -24.2700 -24.2392 -24.2140 -24.1762
   -14.4648 -14.1874 -14.0648 -14.0229 -13.8349 -13.7514 -13.6565 -13.6437
   -13.5450 -13.4671 -13.3876 -13.2998 -13.2684 -13.2596 -13.2078 -13.1457
   -13.0758 -13.0547 -12.9343 -12.8814 -12.8483 -12.8035 -12.7195 -12.6918
   -12.6758 -12.6094 -12.5633 -12.5142 -12.4816 -12.4506 -12.4054 -12.3374
   -12.2664 -12.2614 -12.2428 -12.2173 -12.1719 -12.1144 -12.0802 -12.0619
   -12.0339 -11.9809 -11.9113 -11.8932 -11.8848 -11.8401 -11.8063 -11.7186
   -11.6879 -11.6717 -11.6440 -11.6094 -11.5849 -11.5346 -11.5118 -11.4593
   -11.4426 -11.4122 -11.3817 -11.3675 -11.3047 -11.2680 -11.2423 -11.2340
   -11.1838 -11.1592 -11.1462 -11.1114 -11.0740 -10.9993 -10.9747 -10.9505
   -10.9430 -10.9087 -10.8883 -10.8457 -10.8219 -10.7865 -10.7823 -10.7555
   -10.7302 -10.6847 -10.6762 -10.6537 -10.5999 -10.5597 -10.5455 -10.5128
   -10.4812 -10.4521 -10.4354 -10.4194 -10.4010 -10.3634 -10.3209 -10.3167
   -10.2504 -10.2403 -10.2283 -10.1890 -10.1786 -10.1539 -10.1120 -10.0857
   -10.0736 -10.0089  -9.9842  -9.9748  -9.9486  -9.9320  -9.9143  -9.8917
    -9.8549  -9.8374  -9.8238  -9.7999  -9.7818  -9.7257  -9.7236  -9.6896
    -9.6743  -9.6425  -9.6347  -9.6111  -9.5645  -9.5293  -9.5126  -9.4998
    -9.4650  -9.4430  -9.4208  -9.4099  -9.3411  -9.3355  -9.2973  -9.2955
    -9.2531  -9.2386  -9.2254  -9.1901  -9.1856  -9.1468  -9.1112  -9.0985
    -9.0779  -9.0514  -9.0246  -9.0039  -8.9763  -8.9585  -8.9361  -8.8994
    -8.8880  -8.8509  -8.8420  -8.8191  -8.8039  -8.7652  -8.7480  -8.7283
    -8.6856  -8.6711  -8.6660  -8.6516  -8.6218  -8.5998  -8.5806  -8.5632
    -8.5403  -8.5223  -8.4921  -8.4527  -8.4353  -8.4206  -8.3738  -8.3607
    -8.3430  -8.2934  -8.2787  -8.2722  -8.2493  -8.2233  -8.1728  -8.1398
    -8.1282  -8.0839  -8.0664  -8.0550  -7.9937  -7.9732  -7.9541  -7.9284
    -7.8897  -7.8653  -7.8485  -7.8039  -7.7714  -7.7195  -7.6453  -7.5174
    -6.8661  -6.8017  -6.7720  -6.7208  -6.7005  -6.6791  -6.6491  -6.6250
    -6.6078  -6.5495  -6.5388  -6.5207  -6.5106  -6.4861  -6.4417  -6.4216
    -6.4207  -6.3873  -6.3550  -6.3265  -6.2931  -6.2700  -6.2565  -6.2426
    -6.2318  -6.2059  -6.1902  -6.1658  -6.1441  -6.1206  -6.0775  -6.0759
    -6.0583  -6.0463  -6.0251  -6.0053  -5.9734  -5.9619  -5.9354  -5.9225
    -5.9014  -5.8839  -5.8701  -5.8591  -5.8364  -5.8198  -5.7903  -5.7794
    -5.7502  -5.7291  -5.7172  -5.7064  -5.6964  -5.6680  -5.6433  -5.6279
    -5.6073  -5.5936  -5.5904  -5.5746  -5.5525  -5.5423  -5.5171  -5.5049
    -5.4820  -5.4664  -5.4544  -5.4248  -5.4125  -5.4052  -5.3761  -5.3675
    -5.3443  -5.3217  -5.2947  -5.2688  -5.2576  -5.2482  -5.2438  -5.1997
    -5.1826  -5.1810  -5.1539  -5.1278  -5.1196  -5.1152  -5.1018  -5.0797
    -5.0567  -5.0465  -5.0258  -5.0043  -4.9841  -4.9763  -4.9478  -4.9362
    -4.9148  -4.8929  -4.8725  -4.8621  -4.8297  -4.8240  -4.8004  -4.7894
    -4.7763  -4.7660  -4.7546  -4.7273  -4.7091  -4.6974  -4.6873  -4.6601
    -4.6429  -4.6163  -4.6034  -4.5968  -4.5932  -4.5610  -4.5489  -4.5410
    -4.5190  -4.4986  -4.4847  -4.4744  -4.4505  -4.4412  -4.3932  -4.3872
    -4.3764  -4.3479  -4.3282  -4.3212  -4.2934  -4.2790  -4.2633  -4.2492
    -4.2398  -4.2170  -4.1984  -4.1827  -4.1663  -4.1455  -4.1274  -4.1088
    -4.0925  -4.0817  -4.0778  -4.0698  -4.0591  -4.0156  -4.0019  -3.9735
    -3.9686  -3.9464  -3.9213  -3.9108  -3.8930  -3.8761  -3.8656  -3.8477
    -3.8352  -3.8130  -3.7782  -3.7574  -3.7474  -3.7386  -3.7114  -3.6869
    -3.6758  -3.6615  -3.6542  -3.6320  -3.6301  -3.6063  -3.5868  -3.5669
    -3.5571  -3.5243  -3.5163  -3.5080  -3.4864  -3.4678  -3.4625  -3.4481
    -3.4246  -3.4144  -3.4013  -3.3807  -3.3666  -3.3438  -3.3128  -3.3053
    -3.2836  -3.2790  -3.2621  -3.2560  -3.2316  -3.1998  -3.1876  -3.1833
    -3.1605  -3.1396  -3.1243  -3.1190  -3.0993  -3.0753  -3.0597  -3.0382
    -3.0379  -3.0205  -3.0057  -2.9881  -2.9654  -2.9617  -2.9423  -2.9221
    -2.9013  -2.8785  -2.8712  -2.8545  -2.8493  -2.8280  -2.8026  -2.8001
    -2.7756  -2.7652  -2.7357  -2.7244  -2.6937  -2.6741  -2.6625  -2.6546
    -2.6328  -2.6069  -2.6043  -2.5934  -2.5773  -2.5514  -2.5409  -2.5343
    -2.5211  -2.5130  -2.5074  -2.4609  -2.4526  -2.4333  -2.4245  -2.4190
    -2.4133  -2.3892  -2.3834  -2.3626  -2.3504  -2.3363  -2.3188  -2.2985
    -2.2851  -2.2787  -2.2488  -2.2385  -2.2236  -2.2154  -2.1917  -2.1848
    -2.1682  -2.1541  -2.1469  -2.1310  -2.0942  -2.0836  -2.0820  -2.0652
    -2.0560  -2.0332  -2.0147  -2.0034  -1.9824  -1.9622  -1.9513  -1.9284
    -1.9247  -1.9133  -1.8877  -1.8678  -1.8627  -1.8598  -1.8432  -1.8372
    -1.8092  -1.7954  -1.7874  -1.7743  -1.7392  -1.7312  -1.7194  -1.7148
    -1.6959  -1.6793  -1.6712  -1.6476  -1.6269  -1.6111  -1.6049  -1.5891
    -1.5807  -1.5630  -1.5474  -1.5370  -1.5291  -1.5162  -1.4942  -1.4670
    -1.4608  -1.4470  -1.4271  -1.4154  -1.4090  -1.3927  -1.3664  -1.3554
    -1.3443  -1.3385  -1.3147  -1.3020  -1.2910  -1.2777  -1.2679  -1.2596
    -1.2570  -1.2379  -1.2170  -1.2023  -1.1859  -1.1766  -1.1723  -1.1505
    -1.1289  -1.1139  -1.1025  -1.0912  -1.0832  -1.0776  -1.0633  -1.0479
    -1.0449  -1.0186  -1.0041  -1.0000  -0.9860  -0.9721  -0.9391  -0.9366
    -0.9163  -0.9017  -0.8794  -0.8700  -0.8559  -0.8511  -0.8383  -0.8061
    -0.7921  -0.7703  -0.7609  -0.7508  -0.7473  -0.7451  -0.7186  -0.7088
    -0.6973  -0.6786  -0.6740  -0.6376  -0.6239  -0.6084  -0.6025  -0.5856
    -0.5778  -0.5656  -0.5508  -0.5472  -0.5416  -0.5245  -0.5208  -0.4964
    -0.4794  -0.4606  -0.4536  -0.4525  -0.4319  -0.4191  -0.4024  -0.3903
    -0.3620  -0.3505  -0.3448  -0.3367  -0.3134  -0.2932  -0.2799  -0.2646
    -0.2453  -0.2288  -0.2179  -0.2099  -0.1971  -0.1863  -0.1722  -0.1574
    -0.1348  -0.1316  -0.1166  -0.1001  -0.0824  -0.0738  -0.0580  -0.0492
    -0.0298  -0.0245  -0.0062   0.0184   0.0304   0.0321   0.0485   0.0566
     0.0730   0.0873   0.1008   0.1172   0.1288   0.1471   0.1516   0.1649
     0.1736   0.1839   0.1970   0.2237   0.2309   0.2490   0.2597   0.2681
     0.2821   0.2986   0.3140   0.3238   0.3444   0.3516   0.3569   0.3823
     0.3940   0.4012   0.4094   0.4211   0.4391   0.4496   0.4536   0.4721
     0.4808   0.4829   0.4958   0.5050   0.5149   0.5261   0.5337   0.5485
     0.5513   0.5634   0.5668   0.5813   0.5872   0.5937   0.6009   0.6065
     0.6073   0.6207   0.6210   0.6350   0.6451   0.6509   0.6566   0.6655

     occupation numbers 
     1.0000   1.0000   1.0000   1.0000   1.0000   1.0000   1.0000   1.0000
     1.0000   1.0000   1.0000   1.0000   1.0000   1.0000   1.0000   1.0000
     1.0000   1.0000   1.0000   1.0000   1.0000   1.0000   1.0000   1.0000
     1.0000   1.0000   1.0000   1.0000   1.0000   1.0000   1.0000   1.0000
     1.0000   1.0000   1.0000   1.0000   1.0000   1.0000   1.0000   1.0000
     1.0000   1.0000   1.0000   1.0000   1.0000   1.0000   1.0000   1.0000
     1.0000   1.0000   1.0000   1.0000   1.0000   1.0000   1.0000   1.0000
     1.0000   1.0000   1.0000   1.0000   1.0000   1.0000   1.0000   1.0000
     1.0000   1.0000   1.0000   1.0000   1.0000   1.0000   1.0000   1.0000
     1.0000   1.0000   1.0000   1.0000   1.0000   1.0000   1.0000   1.0000
     1.0000   1.0000   1.0000   1.0000   1.0000   1.0000   1.0000   1.0000
     1.0000   1.0000   1.0000   1.0000   1.0000   1.0000   1.0000   1.0000
     1.0000   1.0000   1.0000   1.0000   1.0000   1.0000   1.0000   1.0000
     1.0000   1.0000   1.0000   1.0000   1.0000   1.0000   1.0000   1.0000
     1.0000   1.0000   1.0000   1.0000   1.0000   1.0000   1.0000   1.0000
     1.0000   1.0000   1.0000   1.0000   1.0000   1.0000   1.0000   1.0000
     1.0000   1.0000   1.0000   1.0000   1.0000   1.0000   1.0000   1.0000
     1.0000   1.0000   1.0000   1.0000   1.0000   1.0000   1.0000   1.0000
     1.0000   1.0000   1.0000   1.0000   1.0000   1.0000   1.0000   1.0000
     1.0000   1.0000   1.0000   1.0000   1.0000   1.0000   1.0000   1.0000
     1.0000   1.0000   1.0000   1.0000   1.0000   1.0000   1.0000   1.0000
     1.0000   1.0000   1.0000   1.0000   1.0000   1.0000   1.0000   1.0000
     1.0000   1.0000   1.0000   1.0000   1.0000   1.0000   1.0000   1.0000
     1.0000   1.0000   1.0000   1.0000   1.0000   1.0000   1.0000   1.0000
     1.0000   1.0000   1.0000   1.0000   1.0000   1.0000   1.0000   1.0000
     1.0000   1.0000   1.0000   1.0000   1.0000   1.0000   1.0000   1.0000
     1.0000   1.0000   1.0000   1.0000   1.0000   1.0000   1.0000   1.0000
     1.0000   1.0000   1.0000   1.0000   1.0000   1.0000   1.0000   1.0000
     1.0000   1.0000   1.0000   1.0000   1.0000   1.0000   1.0000   1.0000
     1.0000   1.0000   1.0000   1.0000   1.0000   1.0000   1.0000   1.0000
     1.0000   1.0000   1.0000   1.0000   1.0000   1.0000   1.0000   1.0000
     1.0000   1.0000   1.0000   1.0000   1.0000   1.0000   1.0000   1.0000
     1.0000   1.0000   1.0000   1.0000   1.0000   1.0000   1.0000   1.0000
     1.0000   1.0000   1.0000   1.0000   1.0000   1.0000   1.0000   1.0000
     1.0000   1.0000   1.0000   1.0000   1.0000   1.0000   1.0000   1.0000
     1.0000   1.0000   1.0000   1.0000   1.0000   1.0000   1.0000   1.0000
     1.0000   1.0000   1.0000   1.0000   1.0000   1.0000   1.0000   1.0000
     1.0000   1.0000   1.0000   1.0000   1.0000   1.0000   1.0000   1.0000
     1.0000   1.0000   1.0000   1.0000   1.0000   1.0000   1.0000   1.0000
     1.0000   1.0000   1.0000   1.0000   1.0000   1.0000   1.0000   1.0000
     1.0000   1.0000   1.0000   1.0000   1.0000   1.0000   1.0000   1.0000
     1.0000   1.0000   1.0000   1.0000   1.0000   1.0000   1.0000   1.0000
     1.0000   1.0000   1.0000   1.0000   1.0000   1.0000   1.0000   1.0000
     1.0000   1.0000   1.0000   1.0000   1.0000   1.0000   1.0000   1.0000
     1.0000   1.0000   1.0000   1.0000   1.0000   1.0000   1.0000   1.0000
     1.0000   1.0000   1.0000   1.0000   1.0000   1.0000   1.0000   1.0000
     1.0000   1.0000   1.0000   1.0000   1.0000   1.0000   1.0000   1.0000
[...]
     atom   18 type  1   force =     0.00001559    0.00001231   -0.00001583
     atom   19 type  1   force =    -0.00001649   -0.00001614    0.00002339
     atom   20 type  1   force =     0.00000711    0.00000231   -0.00000360
     atom   21 type  1   force =     0.00000521    0.00000782    0.00001361
     atom   22 type  1   force =    -0.00000053   -0.00000627    0.00001339
     atom   23 type  1   force =     0.00003320   -0.00000902   -0.00000723
     atom   24 type  1   force =     0.00000887   -0.00001500    0.00000597
     atom   25 type  1   force =     0.00000566    0.00000101    0.00000274
     atom   26 type  1   force =     0.00001120    0.00001079   -0.00001090
     atom   27 type  1   force =     0.00001423    0.00002078    0.00000117
     atom   28 type  1   force =     0.00000467   -0.00000834   -0.00000916
     atom   29 type  1   force =     0.00000711   -0.00002403   -0.00000871
     atom   30 type  1   force =     0.00001316   -0.00001002    0.00001617
     atom   31 type  1   force =     0.00000200    0.00002237   -0.00003688
     atom   32 type  1   force =    -0.00001534    0.00001284   -0.00001394
     atom   33 type  1   force =     0.00002182    0.00002272    0.00000388
     atom   34 type  1   force =     0.00000356   -0.00000675   -0.00000889
     atom   35 type  1   force =    -0.00000540   -0.00000955    0.00000592
     atom   36 type  1   force =     0.00000559   -0.00001107    0.00000428
     atom   37 type  1   force =    -0.00002353    0.00000146   -0.00002074
     atom   38 type  1   force =    -0.00000801   -0.00001467    0.00001870
     atom   39 type  1   force =     0.00000146    0.00000003    0.00001196
     atom   40 type  1   force =     0.00001216   -0.00000203    0.00000530
     atom   41 type  1   force =     0.00000006    0.00001570   -0.00001288
     atom   42 type  1   force =     0.00000940    0.00000234   -0.00002600
     atom   43 type  1   force =    -0.00000385   -0.00000491   -0.00000446
     atom   44 type  1   force =     0.00001039   -0.00001868   -0.00000882
     atom   45 type  1   force =     0.00000112    0.00002515    0.00001780
     atom   46 type  1   force =     0.00001545   -0.00001005    0.00000770
     atom   47 type  1   force =    -0.00003265    0.00001040    0.00004733
     atom   48 type  1   force =    -0.00000225   -0.00000023   -0.00000513
     atom   49 type  1   force =     0.00002033   -0.00001201    0.00001525
     atom   50 type  1   force =     0.00001232    0.00000504   -0.00000598
     atom   51 type  1   force =     0.00000010   -0.00000582    0.00001755
     atom   52 type  1   force =     0.00001661   -0.00001328   -0.00000364
     atom   53 type  1   force =     0.00002518    0.00001213    0.00001784
     atom   54 type  1   force =     0.00001152    0.00000971    0.00002684
     atom   55 type  1   force =    -0.00000628    0.00000115   -0.00000724
     atom   56 type  1   force =     0.00000284    0.00001991    0.00001396
     atom   57 type  1   force =     0.00001774   -0.00001655    0.00002169
     atom   58 type  1   force =    -0.00001450   -0.00000362    0.00000943
     atom   59 type  1   force =     0.00002721    0.00001347    0.00000013
     atom   60 type  1   force =     0.00002103   -0.00000751   -0.00000069
     atom   61 type  1   force =     0.00001030   -0.00001080   -0.00000366
     atom   62 type  1   force =     0.00001117   -0.00000374    0.00001519
     atom   63 type  1   force =     0.00000765   -0.00000640   -0.00000041
     atom   64 type  1   force =    -0.00000553   -0.00000751    0.00002435
     atom   65 type  1   force =     0.00001269   -0.00000258    0.00000249
     atom   66 type  1   force =    -0.00000468   -0.00000266   -0.00000398
     atom   67 type  1   force =    -0.00000158    0.00001847   -0.00000768
     atom   68 type  1   force =    -0.00000755    0.00002389   -0.00000131
     atom   69 type  1   force =    -0.00000849    0.00000315   -0.00001056
     atom   70 type  1   force =    -0.00002382   -0.00002726   -0.00000905
     atom   71 type  1   force =     0.00001191   -0.00001327    0.00001816
     atom   72 type  1   force =     0.00000162   -0.00001746   -0.00000032
     atom   73 type  1   force =     0.00002017    0.00001296   -0.00001023
     atom   74 type  1   force =     0.00000611    0.00000649    0.00000059
     atom   75 type  1   force =    -0.00000455   -0.00001656    0.00000876
     atom   76 type  1   force =     0.00000018   -0.00001627   -0.00000190
     atom   77 type  1   force =    -0.00003198   -0.00000927    0.00001261
     atom   78 type  1   force =    -0.00000138    0.00002660    0.00000654
     atom   79 type  1   force =    -0.00001133   -0.00000314   -0.00001582
     atom   80 type  1   force =     0.00000765    0.00000012    0.00000310
     atom   81 type  1   force =    -0.00001409   -0.00001226    0.00000117
     atom   82 type  1   force =     0.00000982   -0.00001307    0.00000577
     atom   83 type  1   force =    -0.00001965    0.00000003    0.00002500
     atom   84 type  1   force =    -0.00000597   -0.00001217    0.00001438
     atom   85 type  1   force =     0.00001319    0.00000334   -0.00000729
     atom   86 type  1   force =     0.00001382   -0.00001071    0.00000674
     atom   87 type  1   force =     0.00003318   -0.00001807   -0.00000329
     atom   88 type  1   force =    -0.00002005   -0.00001406   -0.00001806
     atom   89 type  1   force =     0.00001118    0.00002529    0.00000422
     atom   90 type  1   force =    -0.00000049   -0.00000961   -0.00000092
     atom   91 type  1   force =     0.00000589    0.00001193   -0.00001677
     atom   92 type  1   force =     0.00000843   -0.00000936   -0.00001936
     atom   93 type  1   force =     0.00000502   -0.00000865    0.00002575
     atom   94 type  1   force =    -0.00001764   -0.00002690   -0.00000668
     atom   95 type  1   force =    -0.00000585    0.00000933    0.00001518
     atom   96 type  1   force =     0.00003288   -0.00000413    0.00001434
     atom   97 type  1   force =     0.00001410    0.00000084    0.00000235
     atom   98 type  1   force =     0.00003006   -0.00000293   -0.00002994
     atom   99 type  1   force =    -0.00000516    0.00000461    0.00000259
     atom  100 type  1   force =     0.00001116    0.00000617   -0.00000336
     atom  101 type  1   force =     0.00001329   -0.00001246   -0.00001811
     atom  102 type  1   force =     0.00001538   -0.00000322   -0.00001115
     atom  103 type  1   force =     0.00002220    0.00001390    0.00001120
     atom  104 type  1   force =    -0.00000405   -0.00001126    0.00001369
     atom  105 type  1   force =     0.00000152    0.00001522   -0.00001539
     atom  106 type  1   force =     0.00000373    0.00003487    0.00002294
     atom  107 type  1   force =     0.00001815   -0.00000229   -0.00001627
     atom  108 type  1   force =    -0.00001263   -0.00000563    0.00001361
     atom  109 type  1   force =     0.00002374    0.00001001    0.00000560
     atom  110 type  1   force =     0.00000947    0.00002952   -0.00000081
     atom  111 type  1   force =     0.00001770   -0.00001164    0.00000951
     atom  112 type  1   force =     0.00002273   -0.00001902    0.00001082
     atom  113 type  1   force =     0.00003004   -0.00000184   -0.00001617
     atom  114 type  1   force =    -0.00000067    0.00001306    0.00002013
     atom  115 type  1   force =     0.00001495   -0.00001173    0.00000393
     atom  116 type  1   force =     0.00000656    0.00000133   -0.00001141
     atom  117 type  1   force =     0.00000621   -0.00000026    0.00000483
     atom  118 type  1   force =    -0.00000743   -0.00000580    0.00000142
     atom  119 type  1   force =    -0.00000750   -0.00001976    0.00001391
     atom  120 type  1   force =     0.00002518    0.00000708   -0.00001783
     atom  121 type  1   force =     0.00000520    0.00003588    0.00000179
     atom  122 type  1   force =     0.00002291   -0.00000164   -0.00002388
     atom  123 type  1   force =    -0.00000693   -0.00001264    0.00000567
     atom  124 type  1   force =     0.00001014   -0.00000022   -0.00000619
     atom  125 type  1   force =     0.00003597    0.00001960   -0.00001094
     atom  126 type  1   force =     0.00000554   -0.00000528    0.00000999
     atom  127 type  1   force =     0.00000806    0.00001471   -0.00001397
     atom  128 type  1   force =     0.00002625   -0.00001786    0.00000737
     atom  129 type  1   force =     0.00001522    0.00001817    0.00001596
     atom  130 type  1   force =    -0.00000222   -0.00001149   -0.00000925
     atom  131 type  1   force =    -0.00000598   -0.00001160    0.00001705
     atom  132 type  1   force =    -0.00000508   -0.00001256    0.00001255
     atom  133 type  1   force =     0.00000228    0.00000108    0.00000666
     atom  134 type  1   force =     0.00000214   -0.00000337    0.00000909
     atom  135 type  1   force =     0.00001978    0.00002593   -0.00001256
     atom  136 type  1   force =     0.00001704    0.00002298   -0.00000807
     atom  137 type  1   force =    -0.00000919    0.00000045   -0.00000054
     atom  138 type  1   force =     0.00000663   -0.00001076    0.00000704
     atom  139 type  1   force =     0.00000186    0.00002471   -0.00001059
     atom  140 type  1   force =     0.00001167    0.00001870    0.00001003
     atom  141 type  1   force =     0.00000962   -0.00000987    0.00000077
     atom  142 type  1   force =     0.00002313    0.00001540   -0.00001905
     atom  143 type  1   force =    -0.00000709   -0.00002131   -0.00001703
     atom  144 type  1   force =     0.00002245   -0.00000314    0.00002572
     atom  145 type  1   force =    -0.00003027   -0.00001616   -0.00001848
     atom  146 type  1   force =     0.00001684   -0.00000845   -0.00000856
     atom  147 type  1   force =     0.00000513   -0.00000613   -0.00001514
     atom  148 type  1   force =    -0.00001016    0.00001822   -0.00000234
     atom  149 type  1   force =     0.00001883   -0.00001926    0.00000339
     atom  150 type  1   force =    -0.00002507    0.00001872    0.00001634
     atom  151 type  1   force =    -0.00002205   -0.00001753   -0.00002293
     atom  152 type  1   force =     0.00000652   -0.00000355    0.00000119
     atom  153 type  1   force =    -0.00000363    0.00000995   -0.00002491
     atom  154 type  1   force =     0.00001550   -0.00001032   -0.00000448
     atom  155 type  1   force =    -0.00000939   -0.00000285   -0.00001425
     atom  156 type  1   force =     0.00000128    0.00000492   -0.00000389
     atom  157 type  1   force =     0.00000752   -0.00000679    0.00001263
     atom  158 type  1   force =     0.00000876   -0.00001033    0.00000461
     atom  159 type  1   force =     0.00001103    0.00002513   -0.00001751
     atom  160 type  1   force =    -0.00000947   -0.00000331   -0.00000044
     atom  161 type  1   force =    -0.00000469    0.00000925    0.00004059
     atom  162 type  1   force =     0.00000847   -0.00001298   -0.00000766
     atom  163 type  1   force =     0.00001093   -0.00000971    0.00001413
     atom  164 type  1   force =     0.00000717   -0.00002157    0.00000597
     atom  165 type  1   force =     0.00000942   -0.00001018    0.00000131
     atom  166 type  1   force =     0.00000258    0.00000143    0.00001619
     atom  167 type  1   force =     0.00000943    0.00000129   -0.00000270
     atom  168 type  1   force =     0.00000273   -0.00001219    0.00001700
     atom  169 type  1   force =    -0.00001809   -0.00000955   -0.00000249
     atom  170 type  1   force =     0.00001178    0.00000207   -0.00001744
     atom  171 type  1   force =     0.00001421   -0.00002493    0.00001075
     atom  172 type  1   force =    -0.00000696   -0.00001736    0.00000750
     atom  173 type  1   force =    -0.00000283    0.00001792   -0.00001657
     atom  174 type  1   force =     0.00000948   -0.00000563   -0.00001409
     atom  175 type  1   force =    -0.00000185   -0.00001592    0.00000390
     atom  176 type  1   force =     0.00000303    0.00000564   -0.00000180
     atom  177 type  1   force =     0.00002125   -0.00000131   -0.00000417
     atom  178 type  1   force =     0.00002166    0.00002011    0.00000179
     atom  179 type  1   force =     0.00001531   -0.00001604    0.00000344
     atom  180 type  1   force =    -0.00001403   -0.00002144    0.00001057
     atom  181 type  1   force =     0.00001143    0.00002016   -0.00000061
     atom  182 type  1   force =     0.00000873   -0.00000394   -0.00002089
     atom  183 type  1   force =     0.00001228    0.00000455   -0.00000282
     atom  184 type  1   force =    -0.00001252    0.00000335    0.00002738
     atom  185 type  1   force =     0.00002062   -0.00002014    0.00002124
     atom  186 type  1   force =     0.00001856   -0.00001190    0.00001950
     atom  187 type  1   force =    -0.00001686   -0.00000891    0.00001169
     atom  188 type  1   force =    -0.00001008    0.00001115   -0.00000495
     atom  189 type  1   force =     0.00001149   -0.00000273    0.00000257
     atom  190 type  1   force =     0.00001022   -0.00000142    0.00000311
     atom  191 type  1   force =     0.00001599    0.00000286    0.00000176
     atom  192 type  1   force =     0.00001082   -0.00001131    0.00000326
     atom  193 type  1   force =     0.00002407   -0.00001184   -0.00001928
     atom  194 type  1   force =     0.00000388   -0.00001016    0.00000374
     atom  195 type  1   force =     0.00001176    0.00001154   -0.00000872
     atom  196 type  1   force =     0.00001022   -0.00000412    0.00000669
     atom  197 type  1   force =    -0.00001178   -0.00000096    0.00003153
     atom  198 type  1   force =     0.00000463   -0.00000143   -0.00000512
     atom  199 type  1   force =     0.00000945    0.00000849   -0.00001616
     atom  200 type  1   force =    -0.00001074    0.00000107   -0.00000201

     Total force =     0.403107     Total SCF correction =     0.000338


     Computing stress (Cartesian axis) and pressure


     negative rho (up, down):  4.194E-02 0.000E+00
          total   stress  (Ry/bohr**3)                   (kbar)     P=   -1.49
  -0.00001004  -0.00000007   0.00000004         -1.48     -0.01      0.01
  -0.00000007  -0.00001040   0.00000041         -0.01     -1.53      0.06
   0.00000004   0.00000041  -0.00000997          0.01      0.06     -1.47

     kinetic stress (kbar)    485.77      0.05     -0.06
                                0.05    485.72     -0.16
                               -0.06     -0.16    485.67

     local   stress (kbar) -46338.56   -229.81    802.37
                             -229.81 -32299.81  -4373.47
                              802.37  -4373.47 -21582.52

     nonloc. stress (kbar)    595.83      0.10      0.17
                                0.10    595.96      0.21
                                0.17      0.21    595.87

     hartree stress (kbar)  23788.76    113.75   -399.03
                              113.75  16777.02   2161.82
                             -399.03   2161.82  11426.27

     exc-cor stress (kbar)    767.64      0.00      0.01
                                0.00    767.64      0.02
                                0.01      0.02    767.64

     corecor stress (kbar)  -1148.34     -0.00     -0.01
                               -0.00  -1148.34     -0.01
                               -0.01     -0.01  -1148.34

     ewald   stress (kbar)  21847.43    115.91   -403.44
                              115.91  14820.29   2211.65
                             -403.44   2211.65   9453.94

     hubbard stress (kbar)      0.00      0.00      0.00
                                0.00      0.00      0.00
                                0.00      0.00      0.00

     london  stress (kbar)      0.00      0.00      0.00
                                0.00      0.00      0.00
                                0.00      0.00      0.00

     DFT-D3  stress (kbar)      0.00      0.00      0.00
                                0.00      0.00      0.00
                                0.00      0.00      0.00

     XDM     stress (kbar)      0.00      0.00      0.00
                                0.00      0.00      0.00
                                0.00      0.00      0.00

     dft-nl  stress (kbar)      0.00      0.00      0.00
                                0.00      0.00      0.00
                                0.00      0.00      0.00

     TS-vdW  stress (kbar)      0.00      0.00      0.00
                                0.00      0.00      0.00
                                0.00      0.00      0.00



     Writing output data file scf.save/
 
     init_run     :    102.44s CPU    107.15s WALL (       1 calls)
     electrons    :  18748.97s CPU  19119.09s WALL (       1 calls)
     forces       :     24.18s CPU     25.41s WALL (       1 calls)
     stress       :    280.89s CPU    283.19s WALL (       1 calls)

     Called by init_run:
     wfcinit      :     63.92s CPU     65.16s WALL (       1 calls)
     wfcinit:atom :      0.04s CPU      0.09s WALL (       1 calls)
     wfcinit:wfcr :     63.77s CPU     64.89s WALL (       1 calls)
     potinit      :      1.30s CPU      1.37s WALL (       1 calls)
     hinit0       :      6.45s CPU      9.35s WALL (       1 calls)

     Called by electrons:
     c_bands      :  11105.92s CPU  11325.01s WALL (      56 calls)
     sum_band     :   1663.31s CPU   1700.10s WALL (      56 calls)
     v_of_rho     :     45.61s CPU     46.52s WALL (      57 calls)
     v_h          :      6.32s CPU      6.43s WALL (      57 calls)
     v_xc         :     43.36s CPU     44.25s WALL (      59 calls)
     newd         :     66.16s CPU     75.27s WALL (      57 calls)
     mix_rho      :   5858.48s CPU   5961.02s WALL (      56 calls)

     Called by c_bands:
     init_us_2    :     10.47s CPU     10.58s WALL (     113 calls)
     regterg      :  11021.07s CPU  11238.37s WALL (      65 calls)

     Called by sum_band:
     sum_band:bec :      1.35s CPU      1.36s WALL (      56 calls)
     addusdens    :     47.46s CPU     56.00s WALL (      56 calls)

     Called by *egterg:
     h_psi        :   8046.01s CPU   8181.70s WALL (     656 calls)
     s_psi        :    344.25s CPU    349.40s WALL (     656 calls)
     g_psi        :      2.76s CPU      2.78s WALL (     590 calls)
     rdiaghg      :   1165.19s CPU   1183.85s WALL (     655 calls)
     regterg:over :    546.11s CPU    558.12s WALL (     590 calls)
     regterg:upda :    558.56s CPU    564.08s WALL (     590 calls)
     regterg:last :    229.73s CPU    233.08s WALL (      65 calls)
     rdiaghg:chol :     30.81s CPU     31.63s WALL (     655 calls)
     rdiaghg:inve :     32.87s CPU     33.31s WALL (     655 calls)
     rdiaghg:para :     88.81s CPU     92.83s WALL (    1310 calls)

     Called by h_psi:
     h_psi:pot    :   8040.26s CPU   8175.91s WALL (     656 calls)
     h_psi:calbec :    377.41s CPU    385.14s WALL (     656 calls)
     vloc_psi     :   7316.51s CPU   7439.01s WALL (     656 calls)
     add_vuspsi   :    346.33s CPU    351.75s WALL (     656 calls)

     General routines
     calbec       :    521.30s CPU    531.86s WALL (     717 calls)
     fft          :     96.47s CPU    101.17s WALL (     645 calls)
     ffts         :   5336.98s CPU   5434.52s WALL (  123062 calls)
     fftw         :   8314.60s CPU   8458.66s WALL (  295108 calls)
     interpolate  :      8.50s CPU      8.62s WALL (      57 calls)
 
     Parallel routines
     fft_scatt_xy :    312.29s CPU    314.98s WALL (  418815 calls)
     fft_scatt_yz :  12477.52s CPU  12713.60s WALL (  418815 calls)
 
     PWSCF        :      5h20m CPU      5h27m WALL

 
   This run was terminated on:   6:37:10   1Dec2019            

=------------------------------------------------------------------------------=
   JOB DONE.
=------------------------------------------------------------------------------=
