
     Program PWSCF v.6.3 starts on 30Nov2019 at 21:12:10 

     This program is part of the open-source Quantum ESPRESSO suite
     for quantum simulation of materials; please cite
         "P. Giannozzi et al., J. Phys.:Condens. Matter 21 395502 (2009);
         "P. Giannozzi et al., J. Phys.:Condens. Matter 29 465901 (2017);
          URL http://www.quantum-espresso.org", 
     in publications or presentations arising from this work. More details at
     http://www.quantum-espresso.org/quote

     Parallel version (MPI), running on   448 processors

     MPI processes distributed on    14 nodes
     R & G space division:  proc/nbgrp/npool/nimage =     448
     Reading input from scf.pwi
Warning: card &IONS ignored
Warning: card / ignored
Warning: card &CELL ignored
Warning: card    CELL_DOFREE      = '2DXY' ignored
Warning: card / ignored

     Current dimensions of program PWSCF are:
     Max number of different atomic species (ntypx) = 10
     Max number of k-points (npk) =  40000
     Max angular momentum in pseudopotentials (lmaxx) =  3

     gamma-point specific algorithms are used

     Subspace diagonalization in iterative solution of the eigenvalue problem:
     one sub-group per band group will be used
     scalapack distributed-memory algorithm (size of sub-group: 14* 14 procs)

 
     Parallelization info
     --------------------
     sticks:   dense  smooth     PW     G-vecs:    dense   smooth      PW
     Min         460     229     56               184940    65380    8140
     Max         462     232     58               184994    65412    8198
     Sum      206659  103297  25827             82864339 29296605 3662131
 


     bravais-lattice index     =            0
     lattice parameter (alat)  =      74.9798  a.u.
     unit-cell volume          =  613376.7080 (a.u.)^3
     number of atoms/cell      =          200
     number of atomic types    =            1
     number of electrons       =      2800.00
     number of Kohn-Sham states=         1680
     kinetic-energy cutoff     =      50.0000  Ry
     charge density cutoff     =     400.0000  Ry
     convergence threshold     =      2.0E-08
     mixing beta               =       0.4000
     number of iterations used =            8  local-TF  mixing
     Exchange-correlation      = SLA  PW   PSX  PSC ( 1  4 10  8 0 0)

     celldm(1)=  74.979798  celldm(2)=   0.000000  celldm(3)=   0.000000
     celldm(4)=   0.000000  celldm(5)=   0.000000  celldm(6)=   0.000000

     crystal axes: (cart. coord. in units of alat)
               a(1) = (   1.000000   0.000000   0.000000 )  
               a(2) = (   0.000000   1.154702   0.000000 )  
               a(3) = (   0.000000   0.000000   1.260157 )  

     reciprocal axes: (cart. coord. in units 2 pi/alat)
               b(1) = (  1.000000  0.000000  0.000000 )  
               b(2) = (  0.000000  0.866024  0.000000 )  
               b(3) = (  0.000000  0.000000  0.793552 )  


     PseudoPot. # 1 for Sn read from file:
     /n/home08/xiey/q-e/pseudo/sn_pbesol_v1.4.uspp.F.UPF
     MD5 check sum: 463fec1d5456f1e96ec1bfcad4b7b038
     Pseudo is Ultrasoft + core correction, Zval = 14.0
     Generated by new atomic code, or converted to UPF format
     Using radial grid of  891 points,  6 beta functions with: 
                l(1) =   0
                l(2) =   0
                l(3) =   1
                l(4) =   1
                l(5) =   2
                l(6) =   2
     Q(r) pseudized with  8 coefficients,  rinner =    1.350   1.350   1.350
                                                       1.350   1.350

     atomic species   valence    mass     pseudopotential
        Sn            14.00   118.71000     Sn( 1.00)

     No symmetry found


                                    s                        frac. trans.

      isym =  1     identity                                     

 cryst.   s( 1) = (     1          0          0      )
                  (     0          1          0      )
                  (     0          0          1      )

 cart.    s( 1) = (  1.0000000  0.0000000  0.0000000 )
                  (  0.0000000  1.0000000  0.0000000 )
                  (  0.0000000  0.0000000  1.0000000 )


   Cartesian axes

     site n.     atom                  positions (alat units)
         1           Sn  tau(   1) = (   0.0111979   0.0647786   0.0492323  )
         2           Sn  tau(   2) = (   0.9187148   0.0175830   1.2380714  )
         3           Sn  tau(   3) = (   0.0487842   0.1236123   1.2493170  )
         4           Sn  tau(   4) = (   0.0916313   0.1611189   0.0467309  )
         5           Sn  tau(   5) = (   0.1445670   0.1721528   1.2495640  )
         6           Sn  tau(   6) = (   0.1603560   0.1472844   0.0597627  )
         7           Sn  tau(   7) = (   0.2779881   0.1091593   0.0248918  )
         8           Sn  tau(   8) = (   0.3240292   0.0587127   1.2476158  )
         9           Sn  tau(   9) = (   0.3945627   0.0674093   0.0050340  )
        10           Sn  tau(  10) = (   0.4388874   0.0052026   0.0276287  )
        11           Sn  tau(  11) = (   0.5113767   0.0095163   0.0331633  )
        12           Sn  tau(  12) = (   0.5405771   0.0676929   0.0014502  )
        13           Sn  tau(  13) = (   0.6055659   0.0741141   0.0190173  )
        14           Sn  tau(  14) = (   0.6343075   0.0112921   0.0321514  )
        15           Sn  tau(  15) = (   0.7023333   1.1618067   0.0362149  )
        16           Sn  tau(  16) = (   0.7414385   0.0672011   0.0503985  )
        17           Sn  tau(  17) = (   0.8210098   0.0841802   0.0615645  )
        18           Sn  tau(  18) = (   0.8000282   0.0090724   0.0237273  )
        19           Sn  tau(  19) = (   0.8782184   0.0192606   0.0432839  )
        20           Sn  tau(  20) = (   0.9282971   0.0796472   0.0467249  )
        21           Sn  tau(  21) = (   0.9715255   0.0907905   1.2431422  )
        22           Sn  tau(  22) = (   0.9894525   0.1481007   0.0405556  )
        23           Sn  tau(  23) = (   0.0405549   0.2007659   0.0099665  )
        24           Sn  tau(  24) = (   0.1204229   0.2278558   0.0345064  )
        25           Sn  tau(  25) = (   0.1953213   0.2100558   0.0324236  )
        26           Sn  tau(  26) = (   0.2246000   0.1560291   1.2429179  )
        27           Sn  tau(  27) = (   0.3007490   0.1438330   1.2248574  )
        28           Sn  tau(  28) = (   0.3652590   0.1396294   0.0265276  )
        29           Sn  tau(  29) = (   0.3920398   0.1960164   1.2371691  )
        30           Sn  tau(  30) = (   0.4372492   0.1293758   1.2420005  )
        31           Sn  tau(  31) = (   0.5021700   0.1229563   0.0128625  )
        32           Sn  tau(  32) = (   0.5377997   0.1890724   0.0299789  )
        33           Sn  tau(  33) = (   0.6146919   0.1881651   0.0165047  )
        34           Sn  tau(  34) = (   0.6519170   0.1255822   0.0448235  )
        35           Sn  tau(  35) = (   0.7130018   0.1212868   0.0004852  )
        36           Sn  tau(  36) = (   0.7536721   0.1949188   1.2601921  )
        37           Sn  tau(  37) = (   0.7686302   0.1385326   0.0493122  )
        38           Sn  tau(  38) = (   0.8477932   0.1487078   0.0254721  )
        39           Sn  tau(  39) = (   0.8580484   0.0836386   1.2555094  )
        40           Sn  tau(  40) = (   0.9182864   0.1430336   1.2585867  )
        41           Sn  tau(  41) = (   0.0130361   0.2718158   0.0180342  )
        42           Sn  tau(  42) = (   0.9619055   0.2020951   1.2483190  )
        43           Sn  tau(  43) = (   0.0751643   0.2575307   1.2353822  )
        44           Sn  tau(  44) = (   0.1501333   0.2595369   1.2396793  )
        45           Sn  tau(  45) = (   0.2180001   0.2719242   1.2485256  )
        46           Sn  tau(  46) = (   0.2649480   0.2196998   1.2329450  )
        47           Sn  tau(  47) = (   0.3204075   0.1932153   0.0190383  )
        48           Sn  tau(  48) = (   0.3515586   0.2600661   1.2585035  )
        49           Sn  tau(  49) = (   0.4197230   0.2662989   0.0168864  )
        50           Sn  tau(  50) = (   0.4597455   0.1983696   0.0224139  )
        51           Sn  tau(  51) = (   0.5047886   0.2602526   0.0172953  )
        52           Sn  tau(  52) = (   0.5783213   0.3059610   0.0056778  )
        53           Sn  tau(  53) = (   0.5752893   0.2473900   0.0556516  )
        54           Sn  tau(  54) = (   0.6467478   0.2575131   0.0248956  )
        55           Sn  tau(  55) = (   0.6899787   0.1907812   0.0377810  )
        56           Sn  tau(  56) = (   0.7263040   0.2627729   0.0169052  )
        57           Sn  tau(  57) = (   0.7863807   0.2853902   0.0490690  )
        58           Sn  tau(  58) = (   0.8097440   0.2142247   0.0424927  )
        59           Sn  tau(  59) = (   0.8796802   0.2165663  -0.0020676  )
        60           Sn  tau(  60) = (   0.9346835   0.2688368   0.0056847  )
        61           Sn  tau(  61) = (  -0.0035085   0.3889827   0.0157799  )
        62           Sn  tau(  62) = (   0.0396453   0.3335106   1.2507359  )
        63           Sn  tau(  63) = (   0.1151509   0.3204352   1.2289982  )
        64           Sn  tau(  64) = (   0.1445224   0.3838362   1.2283278  )
        65           Sn  tau(  65) = (   0.2032124   0.3821199   0.0044047  )
        66           Sn  tau(  66) = (   0.2501908   0.3360032   1.2443469  )
        67           Sn  tau(  67) = (   0.3149686   0.3205814   0.0145990  )
        68           Sn  tau(  68) = (   0.3539856   0.3801011   0.0052538  )
        69           Sn  tau(  69) = (   0.4318583   0.3665418   1.2561118  )
        70           Sn  tau(  70) = (   0.4583493   0.3212946   0.0467611  )
        71           Sn  tau(  71) = (   0.5292810   0.3155685   0.0672039  )
        72           Sn  tau(  72) = (   0.5109558   0.3504093   1.2584153  )
        73           Sn  tau(  73) = (   0.5692834   0.3791358   0.0467070  )
        74           Sn  tau(  74) = (   0.6189991   0.3223784   0.0703755  )
        75           Sn  tau(  75) = (   0.6930031   0.3224867   0.0490055  )
        76           Sn  tau(  76) = (   0.7238417   0.3896808   0.0349270  )
        77           Sn  tau(  77) = (   0.7912853   0.3787679   0.0203110  )
        78           Sn  tau(  78) = (   0.8392695   0.3218617   0.0095533  )
        79           Sn  tau(  79) = (   0.9092032   0.3344356   0.0219614  )
        80           Sn  tau(  80) = (   0.9279518   0.4010550   0.0022002  )
        81           Sn  tau(  81) = (   0.0065370   0.4928574   0.0218359  )
        82           Sn  tau(  82) = (   0.0379088   0.4388647   1.2444175  )
        83           Sn  tau(  83) = (   0.1079924   0.4358253   1.2610717  )
        84           Sn  tau(  84) = (   0.1505179   0.4965446   0.0064335  )
        85           Sn  tau(  85) = (   0.2164672   0.4974217   0.0178045  )
        86           Sn  tau(  86) = (   0.2420212   0.4383456   1.2492439  )
        87           Sn  tau(  87) = (   0.3148729   0.4369997   1.2501689  )
        88           Sn  tau(  88) = (   0.3590540   0.4908765   1.2420887  )
        89           Sn  tau(  89) = (   0.4262607   0.4842027   0.0077000  )
        90           Sn  tau(  90) = (   0.4612855   0.4276897   0.0250837  )
        91           Sn  tau(  91) = (   0.5304051   0.4261598   0.0041195  )
        92           Sn  tau(  92) = (   0.5752843   0.4800089   1.2604114  )
        93           Sn  tau(  93) = (   0.6438998   0.4812867   0.0150488  )
        94           Sn  tau(  94) = (   0.6442325   0.3746572   0.0159007  )
        95           Sn  tau(  95) = (   0.6896385   0.4323245   1.2504159  )
        96           Sn  tau(  96) = (   0.7490725   0.4678685   0.0313154  )
        97           Sn  tau(  97) = (   0.8210955   0.4933514   0.0507606  )
        98           Sn  tau(  98) = (   0.8254053   0.4404047   1.2587833  )
        99           Sn  tau(  99) = (   0.8879343   0.4476052   0.0381782  )
       100           Sn  tau( 100) = (   0.9356640   0.5043097   0.0213690  )
       101           Sn  tau( 101) = (   0.9777809   0.5909808   0.0119791  )
       102           Sn  tau( 102) = (   0.0350243   0.5518807   0.0142645  )
       103           Sn  tau( 103) = (   0.1055021   0.5550789   0.0084026  )
       104           Sn  tau( 104) = (   0.1580219   0.6016543   1.2398104  )
       105           Sn  tau( 105) = (   0.2233913   0.6031665   0.0125373  )
       106           Sn  tau( 106) = (   0.2633073   0.5447683   1.2548491  )
       107           Sn  tau( 107) = (   0.3325756   0.5492570   0.0071745  )
       108           Sn  tau( 108) = (   0.3684875   0.6048123   1.2490020  )
       109           Sn  tau( 109) = (   0.4379121   0.6028212   0.0155002  )
       110           Sn  tau( 110) = (   0.4711525   0.5426992   1.2567595  )
       111           Sn  tau( 111) = (   0.5405292   0.5388708   1.2391299  )
       112           Sn  tau( 112) = (   0.5726052   0.6012662   1.2495111  )
       113           Sn  tau( 113) = (   0.6390734   0.6012082   0.0110524  )
       114           Sn  tau( 114) = (   0.6851196   0.5387397   0.0347791  )
       115           Sn  tau( 115) = (   0.7681362   0.5425782   0.0171585  )
       116           Sn  tau( 116) = (   0.7222513   0.6056616   1.2622109  )
       117           Sn  tau( 117) = (   0.7912500   0.6162722   0.0411119  )
       118           Sn  tau( 118) = (   0.8409732   0.5600137   0.0365635  )
       119           Sn  tau( 119) = (   0.9084622   0.5681846   0.0381858  )
       120           Sn  tau( 120) = (   0.9191635   0.6142735   1.2419804  )
       121           Sn  tau( 121) = (   0.9769190   0.6623863   1.2352209  )
       122           Sn  tau( 122) = (   0.0456446   0.6117431   1.2282421  )
       123           Sn  tau( 123) = (   0.1091427   0.6346679   0.0169878  )
       124           Sn  tau( 124) = (   0.1757891   0.6744788   1.2438353  )
       125           Sn  tau( 125) = (   0.2345354   0.6707210   0.0399424  )
       126           Sn  tau( 126) = (   0.2927899   0.6221520   1.2544937  )
       127           Sn  tau( 127) = (   0.3510570   0.6756331   1.2443973  )
       128           Sn  tau( 128) = (   0.3983104   0.7052291   0.0254884  )
       129           Sn  tau( 129) = (   0.4498105   0.7322847   1.2467009  )
       130           Sn  tau( 130) = (   0.4743155   0.6638204   0.0034646  )
       131           Sn  tau( 131) = (   0.5460638   0.6662827   0.0101690  )
       132           Sn  tau( 132) = (   0.5739107   0.7291167   0.0337556  )
       133           Sn  tau( 133) = (   0.6421507   0.7311254   0.0229191  )
       134           Sn  tau( 134) = (   0.6692542   0.6676361   0.0048965  )
       135           Sn  tau( 135) = (   0.7344295   0.6777955   0.0401400  )
       136           Sn  tau( 136) = (   0.7611826   0.7364357   0.0075802  )
       137           Sn  tau( 137) = (   0.8369584   0.7250565   0.0065842  )
       138           Sn  tau( 138) = (   0.7833513   0.6668498   1.2434018  )
       139           Sn  tau( 139) = (   0.8622245   0.6485952   0.0223610  )
       140           Sn  tau( 140) = (   0.9260590   0.7027088   0.0257256  )
       141           Sn  tau( 141) = (   1.0001789   0.6594376   0.0482060  )
       142           Sn  tau( 142) = (   0.0533591   0.6847138   1.2511719  )
       143           Sn  tau( 143) = (   0.1290169   0.7035733   0.0266851  )
       144           Sn  tau( 144) = (   0.1933605   0.7319344   0.0307095  )
       145           Sn  tau( 145) = (   0.2724610   0.7535511   1.2419753  )
       146           Sn  tau( 146) = (   0.2934074   0.6970482   0.0200709  )
       147           Sn  tau( 147) = (   0.3520601   0.7482610   1.2287386  )
       148           Sn  tau( 148) = (   0.3898825   0.7835328   0.0166590  )
       149           Sn  tau( 149) = (   0.4316970   0.8499103   0.0380976  )
       150           Sn  tau( 150) = (   0.4728033   0.7928100   0.0183726  )
       151           Sn  tau( 151) = (   0.5398260   0.7908770   0.0440808  )
       152           Sn  tau( 152) = (   0.5777290   0.8446378   0.0155766  )
       153           Sn  tau( 153) = (   0.6425439   0.8481713   0.0535743  )
       154           Sn  tau( 154) = (   0.6702749   0.7880618   0.0389580  )
       155           Sn  tau( 155) = (   0.7349260   0.8008171   0.0266019  )
       156           Sn  tau( 156) = (   0.7522557   0.8693243   1.2633627  )
       157           Sn  tau( 157) = (   0.8266805   0.8648457  -0.0023505  )
       158           Sn  tau( 158) = (   0.8141546   0.7941433   0.0294806  )
       159           Sn  tau( 159) = (   0.8887332   0.7757652   0.0156833  )
       160           Sn  tau( 160) = (   0.8981113   0.8890684   1.2657772  )
       161           Sn  tau( 161) = (   0.9621373   1.1087364   1.2473033  )
       162           Sn  tau( 162) = (   0.9123107   1.0326406   0.0257082  )
       163           Sn  tau( 163) = (   0.9548461   1.0734697   0.0628029  )
       164           Sn  tau( 164) = (   0.0286847   1.1440460   0.0403671  )
       165           Sn  tau( 165) = (   0.1223229   0.0977214   0.0025403  )
       166           Sn  tau( 166) = (   0.3135875   0.8085494   1.2582540  )
       167           Sn  tau( 167) = (   0.3733845   0.8529775   1.2574551  )
       168           Sn  tau( 168) = (   0.3819157   0.9178075   0.0392935  )
       169           Sn  tau( 169) = (   0.4234102   0.9647963   0.0159445  )
       170           Sn  tau( 170) = (   0.4710315   0.9126560   0.0215914  )
       171           Sn  tau( 171) = (   0.5439492   0.9059973   0.0200076  )
       172           Sn  tau( 172) = (   0.5545371   0.9763217   0.0176496  )
       173           Sn  tau( 173) = (   0.6207961   0.9824259   0.0396561  )
       174           Sn  tau( 174) = (   0.6555739   0.9172909   0.0361426  )
       175           Sn  tau( 175) = (   0.7193656   0.9309232   0.0218029  )
       176           Sn  tau( 176) = (   0.7485105   0.9926155   0.0290958  )
       177           Sn  tau( 177) = (   0.8052150   0.9915443   1.2407983  )
       178           Sn  tau( 178) = (   0.8410413   0.9385371   1.2591714  )
       179           Sn  tau( 179) = (   0.8963874   0.9645593   0.0388474  )
       180           Sn  tau( 180) = (   0.8402298   1.0357507   0.0338917  )
       181           Sn  tau( 181) = (   0.9027108   1.0972287   1.2007329  )
       182           Sn  tau( 182) = (   0.9520107   1.1543692   0.0549738  )
       183           Sn  tau( 183) = (   0.0748876   0.0357323   0.0053578  )
       184           Sn  tau( 184) = (   1.0044710   0.0182987   1.2427995  )
       185           Sn  tau( 185) = (   0.0834854   0.0862608   0.0665184  )
       186           Sn  tau( 186) = (   0.1978759   0.0906212   0.0184829  )
       187           Sn  tau( 187) = (   0.3662772   0.0052301   0.0348015  )
       188           Sn  tau( 188) = (   0.3530128   0.0700196   0.0675212  )
       189           Sn  tau( 189) = (   0.4613812   1.0958576   1.2639550  )
       190           Sn  tau( 190) = (   0.4607260   1.0235271   0.0308418  )
       191           Sn  tau( 191) = (   0.5249083   1.0387826   0.0044573  )
       192           Sn  tau( 192) = (   0.5447431   1.1053642   0.0045731  )
       193           Sn  tau( 193) = (   0.6147423   1.1009386   0.0235578  )
       194           Sn  tau( 194) = (   0.6565090   1.0425580   0.0295159  )
       195           Sn  tau( 195) = (   0.7254799   1.0635447   0.0401952  )
       196           Sn  tau( 196) = (   0.7287336   1.1092884   1.2419199  )
       197           Sn  tau( 197) = (   0.7972609   1.0931508   0.0051984  )
       198           Sn  tau( 198) = (   0.8502833   1.0573523   1.2241995  )
       199           Sn  tau( 199) = (   0.8938746   1.1045880   0.0212511  )
       200           Sn  tau( 200) = (   0.8433751   1.1469141   1.2253236  )

   Crystallographic axes

     site n.     atom                  positions (cryst. coord.)
         1           Sn  tau(   1) = (  0.0111979  0.0560999  0.0390684  )
         2           Sn  tau(   2) = (  0.9187148  0.0152273  0.9824740  )
         3           Sn  tau(   3) = (  0.0487842  0.1070513  0.9913980  )
         4           Sn  tau(   4) = (  0.0916313  0.1395329  0.0370834  )
         5           Sn  tau(   5) = (  0.1445670  0.1490885  0.9915940  )
         6           Sn  tau(   6) = (  0.1603560  0.1275518  0.0474248  )
         7           Sn  tau(   7) = (  0.2779881  0.0945346  0.0197530  )
         8           Sn  tau(   8) = (  0.3240292  0.0508467  0.9900480  )
         9           Sn  tau(   9) = (  0.3945627  0.0583781  0.0039948  )
        10           Sn  tau(  10) = (  0.4388874  0.0045056  0.0219248  )
        11           Sn  tau(  11) = (  0.5113767  0.0082413  0.0263168  )
        12           Sn  tau(  12) = (  0.5405771  0.0586237  0.0011508  )
        13           Sn  tau(  13) = (  0.6055659  0.0641846  0.0150912  )
        14           Sn  tau(  14) = (  0.6343075  0.0097792  0.0255138  )
        15           Sn  tau(  15) = (  0.7023333  1.0061529  0.0287384  )
        16           Sn  tau(  16) = (  0.7414385  0.0581978  0.0399938  )
        17           Sn  tau(  17) = (  0.8210098  0.0729021  0.0488546  )
        18           Sn  tau(  18) = (  0.8000282  0.0078569  0.0188288  )
        19           Sn  tau(  19) = (  0.8782184  0.0166802  0.0343480  )
        20           Sn  tau(  20) = (  0.9282971  0.0689764  0.0370786  )
        21           Sn  tau(  21) = (  0.9715255  0.0786268  0.9864980  )
        22           Sn  tau(  22) = (  0.9894525  0.1282588  0.0321830  )
        23           Sn  tau(  23) = (  0.0405549  0.1738682  0.0079089  )
        24           Sn  tau(  24) = (  0.1204229  0.1973287  0.0273826  )
        25           Sn  tau(  25) = (  0.1953213  0.1819134  0.0257298  )
        26           Sn  tau(  26) = (  0.2246000  0.1351250  0.9863200  )
        27           Sn  tau(  27) = (  0.3007490  0.1245629  0.9719880  )
        28           Sn  tau(  28) = (  0.3652590  0.1209225  0.0210510  )
        29           Sn  tau(  29) = (  0.3920398  0.1697550  0.9817580  )
        30           Sn  tau(  30) = (  0.4372492  0.1120426  0.9855920  )
        31           Sn  tau(  31) = (  0.5021700  0.1064831  0.0102070  )
        32           Sn  tau(  32) = (  0.5377997  0.1637413  0.0237898  )
        33           Sn  tau(  33) = (  0.6146919  0.1629556  0.0130973  )
        34           Sn  tau(  34) = (  0.6519170  0.1087572  0.0355698  )
        35           Sn  tau(  35) = (  0.7130018  0.1050373  0.0003850  )
        36           Sn  tau(  36) = (  0.7536721  0.1688044  1.0000280  )
        37           Sn  tau(  37) = (  0.7686302  0.1199726  0.0391318  )
        38           Sn  tau(  38) = (  0.8477932  0.1287846  0.0202134  )
        39           Sn  tau(  39) = (  0.8580484  0.0724331  0.9963120  )
        40           Sn  tau(  40) = (  0.9182864  0.1238706  0.9987540  )
        41           Sn  tau(  41) = (  0.0130361  0.2353991  0.0143111  )
        42           Sn  tau(  42) = (  0.9619055  0.1750193  0.9906060  )
        43           Sn  tau(  43) = (  0.0751643  0.2230279  0.9803400  )
        44           Sn  tau(  44) = (  0.1501333  0.2247653  0.9837500  )
        45           Sn  tau(  45) = (  0.2180001  0.2354930  0.9907700  )
        46           Sn  tau(  46) = (  0.2649480  0.1902654  0.9784060  )
        47           Sn  tau(  47) = (  0.3204075  0.1673292  0.0151079  )
        48           Sn  tau(  48) = (  0.3515586  0.2252236  0.9986880  )
        49           Sn  tau(  49) = (  0.4197230  0.2306213  0.0134002  )
        50           Sn  tau(  50) = (  0.4597455  0.1717929  0.0177866  )
        51           Sn  tau(  51) = (  0.5047886  0.2253851  0.0137247  )
        52           Sn  tau(  52) = (  0.5783213  0.2649697  0.0045056  )
        53           Sn  tau(  53) = (  0.5752893  0.2142457  0.0441624  )
        54           Sn  tau(  54) = (  0.6467478  0.2230126  0.0197559  )
        55           Sn  tau(  55) = (  0.6899787  0.1652212  0.0299812  )
        56           Sn  tau(  56) = (  0.7263040  0.2275678  0.0134151  )
        57           Sn  tau(  57) = (  0.7863807  0.2471549  0.0389388  )
        58           Sn  tau(  58) = (  0.8097440  0.1855238  0.0337202  )
        59           Sn  tau(  59) = (  0.8796802  0.1875517 -0.0016408  )
        60           Sn  tau(  60) = (  0.9346835  0.2328192  0.0045111  )
        61           Sn  tau(  61) = ( -0.0035085  0.3368685  0.0125222  )
        62           Sn  tau(  62) = (  0.0396453  0.2888283  0.9925240  )
        63           Sn  tau(  63) = (  0.1151509  0.2775047  0.9752740  )
        64           Sn  tau(  64) = (  0.1445224  0.3324115  0.9747420  )
        65           Sn  tau(  65) = (  0.2032124  0.3309251  0.0034953  )
        66           Sn  tau(  66) = (  0.2501908  0.2909870  0.9874540  )
        67           Sn  tau(  67) = (  0.3149686  0.2776313  0.0115851  )
        68           Sn  tau(  68) = (  0.3539856  0.3291768  0.0041692  )
        69           Sn  tau(  69) = (  0.4318583  0.3174342  0.9967900  )
        70           Sn  tau(  70) = (  0.4583493  0.2782490  0.0371074  )
        71           Sn  tau(  71) = (  0.5292810  0.2732900  0.0533298  )
        72           Sn  tau(  72) = (  0.5109558  0.3034630  0.9986180  )
        73           Sn  tau(  73) = (  0.5692834  0.3283409  0.0370644  )
        74           Sn  tau(  74) = (  0.6189991  0.2791875  0.0558466  )
        75           Sn  tau(  75) = (  0.6930031  0.2792814  0.0388884  )
        76           Sn  tau(  76) = (  0.7238417  0.3374731  0.0277164  )
        77           Sn  tau(  77) = (  0.7912853  0.3280222  0.0161178  )
        78           Sn  tau(  78) = (  0.8392695  0.2787401  0.0075810  )
        79           Sn  tau(  79) = (  0.9092032  0.2896293  0.0174275  )
        80           Sn  tau(  80) = (  0.9279518  0.3473234  0.0017460  )
        81           Sn  tau(  81) = (  0.0065370  0.4268266  0.0173279  )
        82           Sn  tau(  82) = (  0.0379088  0.3800676  0.9875100  )
        83           Sn  tau(  83) = (  0.1079924  0.3774353  1.0007260  )
        84           Sn  tau(  84) = (  0.1505179  0.4300198  0.0051053  )
        85           Sn  tau(  85) = (  0.2164672  0.4307793  0.0141288  )
        86           Sn  tau(  86) = (  0.2420212  0.3796179  0.9913400  )
        87           Sn  tau(  87) = (  0.3148729  0.3784524  0.9920740  )
        88           Sn  tau(  88) = (  0.3590540  0.4251110  0.9856620  )
        89           Sn  tau(  89) = (  0.4262607  0.4193313  0.0061104  )
        90           Sn  tau(  90) = (  0.4612855  0.3703897  0.0199052  )
        91           Sn  tau(  91) = (  0.5304051  0.3690648  0.0032691  )
        92           Sn  tau(  92) = (  0.5752843  0.4156994  1.0002020  )
        93           Sn  tau(  93) = (  0.6438998  0.4168060  0.0119420  )
        94           Sn  tau(  94) = (  0.6442325  0.3244623  0.0126180  )
        95           Sn  tau(  95) = (  0.6896385  0.3744036  0.9922700  )
        96           Sn  tau(  96) = (  0.7490725  0.4051855  0.0248504  )
        97           Sn  tau(  97) = (  0.8210955  0.4272544  0.0402812  )
        98           Sn  tau(  98) = (  0.8254053  0.3814012  0.9989100  )
        99           Sn  tau(  99) = (  0.8879343  0.3876370  0.0302964  )
       100           Sn  tau( 100) = (  0.9356640  0.4367445  0.0169574  )
       101           Sn  tau( 101) = (  0.9777809  0.5118038  0.0095061  )
       102           Sn  tau( 102) = (  0.0350243  0.4779421  0.0113196  )
       103           Sn  tau( 103) = (  0.1055021  0.4807119  0.0066679  )
       104           Sn  tau( 104) = (  0.1580219  0.5210473  0.9838540  )
       105           Sn  tau( 105) = (  0.2233913  0.5223569  0.0099490  )
       106           Sn  tau( 106) = (  0.2633073  0.4717827  0.9957880  )
       107           Sn  tau( 107) = (  0.3325756  0.4756700  0.0056933  )
       108           Sn  tau( 108) = (  0.3684875  0.5237822  0.9911480  )
       109           Sn  tau( 109) = (  0.4379121  0.5220579  0.0123002  )
       110           Sn  tau( 110) = (  0.4711525  0.4699907  0.9973040  )
       111           Sn  tau( 111) = (  0.5405292  0.4666753  0.9833140  )
       112           Sn  tau( 112) = (  0.5726052  0.5207112  0.9915520  )
       113           Sn  tau( 113) = (  0.6390734  0.5206610  0.0087707  )
       114           Sn  tau( 114) = (  0.6851196  0.4665618  0.0275990  )
       115           Sn  tau( 115) = (  0.7681362  0.4698859  0.0136162  )
       116           Sn  tau( 116) = (  0.7222513  0.5245177  1.0016300  )
       117           Sn  tau( 117) = (  0.7912500  0.5337067  0.0326244  )
       118           Sn  tau( 118) = (  0.8409732  0.4849855  0.0290150  )
       119           Sn  tau( 119) = (  0.9084622  0.4920617  0.0303024  )
       120           Sn  tau( 120) = (  0.9191635  0.5319759  0.9855760  )
       121           Sn  tau( 121) = (  0.9769190  0.5736427  0.9802120  )
       122           Sn  tau( 122) = (  0.0456446  0.5297845  0.9746740  )
       123           Sn  tau( 123) = (  0.1091427  0.5496379  0.0134807  )
       124           Sn  tau( 124) = (  0.1757891  0.5841151  0.9870480  )
       125           Sn  tau( 125) = (  0.2345354  0.5808608  0.0316964  )
       126           Sn  tau( 126) = (  0.2927899  0.5387988  0.9955060  )
       127           Sn  tau( 127) = (  0.3510570  0.5851147  0.9874940  )
       128           Sn  tau( 128) = (  0.3983104  0.6107456  0.0202264  )
       129           Sn  tau( 129) = (  0.4498105  0.6341764  0.9893220  )
       130           Sn  tau( 130) = (  0.4743155  0.5748846  0.0027493  )
       131           Sn  tau( 131) = (  0.5460638  0.5770171  0.0080696  )
       132           Sn  tau( 132) = (  0.5739107  0.6314328  0.0267868  )
       133           Sn  tau( 133) = (  0.6421507  0.6331724  0.0181875  )
       134           Sn  tau( 134) = (  0.6692542  0.5781892  0.0038857  )
       135           Sn  tau( 135) = (  0.7344295  0.5869875  0.0318532  )
       136           Sn  tau( 136) = (  0.7611826  0.6377712  0.0060153  )
       137           Sn  tau( 137) = (  0.8369584  0.6279166  0.0052249  )
       138           Sn  tau( 138) = (  0.7833513  0.5775082  0.9867040  )
       139           Sn  tau( 139) = (  0.8622245  0.5616992  0.0177446  )
       140           Sn  tau( 140) = (  0.9260590  0.6085630  0.0204146  )
       141           Sn  tau( 141) = (  1.0001789  0.5710890  0.0382540  )
       142           Sn  tau( 142) = (  0.0533591  0.5929788  0.9928700  )
       143           Sn  tau( 143) = (  0.1290169  0.6093116  0.0211760  )
       144           Sn  tau( 144) = (  0.1933605  0.6338730  0.0243696  )
       145           Sn  tau( 145) = (  0.2724610  0.6525936  0.9855720  )
       146           Sn  tau( 146) = (  0.2934074  0.6036607  0.0159273  )
       147           Sn  tau( 147) = (  0.3520601  0.6480123  0.9750680  )
       148           Sn  tau( 148) = (  0.3898825  0.6785585  0.0132198  )
       149           Sn  tau( 149) = (  0.4316970  0.7360430  0.0302324  )
       150           Sn  tau( 150) = (  0.4728033  0.6865928  0.0145796  )
       151           Sn  tau( 151) = (  0.5398260  0.6849187  0.0349804  )
       152           Sn  tau( 152) = (  0.5777290  0.7314769  0.0123609  )
       153           Sn  tau( 153) = (  0.6425439  0.7345370  0.0425140  )
       154           Sn  tau( 154) = (  0.6702749  0.6824807  0.0309152  )
       155           Sn  tau( 155) = (  0.7349260  0.6935271  0.0211100  )
       156           Sn  tau( 156) = (  0.7522557  0.7528560  1.0025440  )
       157           Sn  tau( 157) = (  0.8266805  0.7489774 -0.0018652  )
       158           Sn  tau( 158) = (  0.8141546  0.6877475  0.0233944  )
       159           Sn  tau( 159) = (  0.8887332  0.6718316  0.0124455  )
       160           Sn  tau( 160) = (  0.8981113  0.7699549  1.0044600  )
       161           Sn  tau( 161) = (  0.9621373  0.9601928  0.9898000  )
       162           Sn  tau( 162) = (  0.9123107  0.8942919  0.0204008  )
       163           Sn  tau( 163) = (  0.9548461  0.9296509  0.0498374  )
       164           Sn  tau( 164) = (  0.0286847  0.9907717  0.0320334  )
       165           Sn  tau( 165) = (  0.1223229  0.0846291  0.0020158  )
       166           Sn  tau( 166) = (  0.3135875  0.7002235  0.9984900  )
       167           Sn  tau( 167) = (  0.3733845  0.7386993  0.9978560  )
       168           Sn  tau( 168) = (  0.3819157  0.7948437  0.0311814  )
       169           Sn  tau( 169) = (  0.4234102  0.8355371  0.0126528  )
       170           Sn  tau( 170) = (  0.4710315  0.7903824  0.0171339  )
       171           Sn  tau( 171) = (  0.5439492  0.7846158  0.0158770  )
       172           Sn  tau( 172) = (  0.5545371  0.8455184  0.0140059  )
       173           Sn  tau( 173) = (  0.6207961  0.8508047  0.0314692  )
       174           Sn  tau( 174) = (  0.6555739  0.7943963  0.0286810  )
       175           Sn  tau( 175) = (  0.7193656  0.8062022  0.0173017  )
       176           Sn  tau( 176) = (  0.7485105  0.8596292  0.0230890  )
       177           Sn  tau( 177) = (  0.8052150  0.8587016  0.9846380  )
       178           Sn  tau( 178) = (  0.8410413  0.8127960  0.9992180  )
       179           Sn  tau( 179) = (  0.8963874  0.8353319  0.0308274  )
       180           Sn  tau( 180) = (  0.8402298  0.8969853  0.0268948  )
       181           Sn  tau( 181) = (  0.9027108  0.9502268  0.9528440  )
       182           Sn  tau( 182) = (  0.9520107  0.9997119  0.0436246  )
       183           Sn  tau( 183) = (  0.0748876  0.0309450  0.0042517  )
       184           Sn  tau( 184) = (  1.0044710  0.0158471  0.9862260  )
       185           Sn  tau( 185) = (  0.0834854  0.0747039  0.0527858  )
       186           Sn  tau( 186) = (  0.1978759  0.0784801  0.0146671  )
       187           Sn  tau( 187) = (  0.3662772  0.0045294  0.0276168  )
       188           Sn  tau( 188) = (  0.3530128  0.0606387  0.0535816  )
       189           Sn  tau( 189) = (  0.4613812  0.9490394  1.0030140  )
       190           Sn  tau( 190) = (  0.4607260  0.8863995  0.0244746  )
       191           Sn  tau( 191) = (  0.5249083  0.8996111  0.0035371  )
       192           Sn  tau( 192) = (  0.5447431  0.9572724  0.0036290  )
       193           Sn  tau( 193) = (  0.6147423  0.9534396  0.0186943  )
       194           Sn  tau( 194) = (  0.6565090  0.9028807  0.0234224  )
       195           Sn  tau( 195) = (  0.7254799  0.9210556  0.0318970  )
       196           Sn  tau( 196) = (  0.7287336  0.9606708  0.9855280  )
       197           Sn  tau( 197) = (  0.7972609  0.9466952  0.0041252  )
       198           Sn  tau( 198) = (  0.8502833  0.9156928  0.9714660  )
       199           Sn  tau( 199) = (  0.8938746  0.9566001  0.0168639  )
       200           Sn  tau( 200) = (  0.8433751  0.9932556  0.9723580  )

     number of k points=     1  Marzari-Vanderbilt smearing, width (Ry)=  0.0200
                       cart. coord. in units 2pi/alat
        k(    1) = (   0.0000000   0.0000000   0.0000000), wk =   2.0000000

                       cryst. coord.
        k(    1) = (   0.0000000   0.0000000   0.0000000), wk =   2.0000000

     Dense  grid: 41432170 G-vectors     FFT dimensions: ( 480, 576, 625)

     Smooth grid: 14648303 G-vectors     FFT dimensions: ( 360, 400, 432)

     Dynamical RAM for                 wfc:     104.77 MB

     Dynamical RAM for     wfc (w. buffer):     104.77 MB

     Dynamical RAM for           str. fact:       1.41 MB

     Dynamical RAM for           local pot:       0.00 MB

     Dynamical RAM for          nlocal pot:     224.51 MB

     Dynamical RAM for                qrad:      19.12 MB

     Dynamical RAM for          rho,v,vnew:      16.89 MB

     Dynamical RAM for               rhoin:       5.63 MB

     Dynamical RAM for            rho*nmix:      22.58 MB

     Dynamical RAM for           G-vectors:       5.54 MB

     Dynamical RAM for          h,s,v(r/c):       5.27 MB

     Dynamical RAM for          <psi|beta>:      46.14 MB

     Dynamical RAM for                 psi:     419.08 MB

     Dynamical RAM for                hpsi:     419.08 MB

     Dynamical RAM for                spsi:     419.08 MB

     Dynamical RAM for      wfcinit/wfcrot:     298.68 MB

     Dynamical RAM for           addusdens:     544.66 MB

     Dynamical RAM for          addusforce:    1107.74 MB

     Dynamical RAM for         addusstress:     283.62 MB

     Estimated static dynamical RAM per process >     424.36 MB

     Estimated max dynamical RAM per process >       1.69 GB

     Estimated total dynamical RAM >     758.19 GB

     Initial potential from superposition of free atoms

     starting charge 2599.99167, renormalised to 2800.00000

     negative rho (up, down):  1.860E-01 0.000E+00
     Starting wfcs are 1800 atomic wfcs

     total cpu time spent up to now is      108.0 secs

     Self-consistent Calculation

     iteration #  1     ecut=    50.00 Ry     beta= 0.40
     Davidson diagonalization with overlap
     ethr =  1.00E-02,  avg # of iterations =  8.0

     negative rho (up, down):  2.944E+00 0.000E+00

     total cpu time spent up to now is      765.4 secs

     total energy              =  -31818.12038372 Ry
     Harris-Foulkes estimate   =  -31886.00181608 Ry
     estimated scf accuracy    <     281.94237365 Ry

     iteration #  2     ecut=    50.00 Ry     beta= 0.40
     Davidson diagonalization with overlap
     ethr =  1.00E-02,  avg # of iterations =  1.0

     negative rho (up, down):  1.091E+01 0.000E+00

     total cpu time spent up to now is     1135.2 secs

     total energy              =  -31742.09160117 Ry
     Harris-Foulkes estimate   =  -31824.26783073 Ry
     estimated scf accuracy    <     142.42734388 Ry

     iteration #  3     ecut=    50.00 Ry     beta= 0.40
     Davidson diagonalization with overlap
     ethr =  5.09E-03,  avg # of iterations =  3.0

     negative rho (up, down):  1.070E+01 0.000E+00

     total cpu time spent up to now is     1506.3 secs

     total energy              =  -31775.15112028 Ry
     Harris-Foulkes estimate   =  -31777.79174841 Ry
     estimated scf accuracy    <       7.94022645 Ry

     iteration #  4     ecut=    50.00 Ry     beta= 0.40
     Davidson diagonalization with overlap
     ethr =  2.84E-04,  avg # of iterations = 14.0

     negative rho (up, down):  1.143E+01 0.000E+00

     total cpu time spent up to now is     1942.3 secs

     total energy              =  -31774.73520805 Ry
     Harris-Foulkes estimate   =  -31776.04658526 Ry
     estimated scf accuracy    <       4.63927367 Ry

     iteration #  5     ecut=    50.00 Ry     beta= 0.40
     Davidson diagonalization with overlap
     ethr =  1.66E-04,  avg # of iterations =  9.0

     negative rho (up, down):  9.847E+00 0.000E+00

     total cpu time spent up to now is     2209.1 secs

     total energy              =  -31774.50133813 Ry
     Harris-Foulkes estimate   =  -31774.96483642 Ry
     estimated scf accuracy    <       1.74931891 Ry

     iteration #  6     ecut=    50.00 Ry     beta= 0.40
     Davidson diagonalization with overlap
     ethr =  6.25E-05,  avg # of iterations =  9.0

     negative rho (up, down):  8.037E+00 0.000E+00

     total cpu time spent up to now is     2468.1 secs

     total energy              =  -31774.27214473 Ry
     Harris-Foulkes estimate   =  -31774.74141153 Ry
     estimated scf accuracy    <       1.18509026 Ry

     iteration #  7     ecut=    50.00 Ry     beta= 0.40
     Davidson diagonalization with overlap
     ethr =  4.23E-05,  avg # of iterations = 20.0

     negative rho (up, down):  6.253E+00 0.000E+00

     total cpu time spent up to now is     2776.4 secs

     total energy              =  -31774.17083080 Ry
     Harris-Foulkes estimate   =  -31774.31658722 Ry
     estimated scf accuracy    <       0.73587114 Ry

     iteration #  8     ecut=    50.00 Ry     beta= 0.40
     Davidson diagonalization with overlap
     ethr =  2.63E-05,  avg # of iterations = 28.0

     negative rho (up, down):  5.642E+00 0.000E+00

     total cpu time spent up to now is     3208.8 secs

     total energy              =  -31774.12812078 Ry
     Harris-Foulkes estimate   =  -31774.19526982 Ry
     estimated scf accuracy    <       0.58979445 Ry

     iteration #  9     ecut=    50.00 Ry     beta= 0.40
     Davidson diagonalization with overlap
     ethr =  2.11E-05,  avg # of iterations =  5.0

     negative rho (up, down):  5.424E+00 0.000E+00

     total cpu time spent up to now is     3435.3 secs

     total energy              =  -31774.10009471 Ry
     Harris-Foulkes estimate   =  -31774.13136109 Ry
     estimated scf accuracy    <       0.48547644 Ry

     iteration # 10     ecut=    50.00 Ry     beta= 0.40
     Davidson diagonalization with overlap
     c_bands:  3 eigenvalues not converged
     ethr =  1.73E-05,  avg # of iterations = 20.0

     negative rho (up, down):  4.036E+00 0.000E+00

     total cpu time spent up to now is     3735.6 secs

     total energy              =  -31774.01400534 Ry
     Harris-Foulkes estimate   =  -31774.10381110 Ry
     estimated scf accuracy    <       0.44077001 Ry

     iteration # 11     ecut=    50.00 Ry     beta= 0.40
     Davidson diagonalization with overlap
     ethr =  1.57E-05,  avg # of iterations = 25.0

     negative rho (up, down):  3.110E+00 0.000E+00

     total cpu time spent up to now is     4257.7 secs

     total energy              =  -31773.99679790 Ry
     Harris-Foulkes estimate   =  -31774.02872658 Ry
     estimated scf accuracy    <       0.30445245 Ry

     iteration # 12     ecut=    50.00 Ry     beta= 0.40
     Davidson diagonalization with overlap
     c_bands:  1 eigenvalues not converged
     ethr =  1.09E-05,  avg # of iterations = 40.0

     negative rho (up, down):  3.663E+00 0.000E+00

     total cpu time spent up to now is     4894.0 secs

     total energy              =  -31773.86784784 Ry
     Harris-Foulkes estimate   =  -31774.04626814 Ry
     estimated scf accuracy    <       0.43814033 Ry

     iteration # 13     ecut=    50.00 Ry     beta= 0.40
     Davidson diagonalization with overlap
     ethr =  1.09E-05,  avg # of iterations = 53.0

     negative rho (up, down):  2.640E+00 0.000E+00

     total cpu time spent up to now is     5543.3 secs

     total energy              =  -31773.82554113 Ry
     Harris-Foulkes estimate   =  -31773.89649283 Ry
     estimated scf accuracy    <       0.17963892 Ry

     iteration # 14     ecut=    50.00 Ry     beta= 0.40
     Davidson diagonalization with overlap
     c_bands:  3 eigenvalues not converged
     ethr =  6.42E-06,  avg # of iterations = 60.0

     negative rho (up, down):  2.829E+00 0.000E+00

     total cpu time spent up to now is     6205.8 secs

     total energy              =  -31773.78390571 Ry
     Harris-Foulkes estimate   =  -31773.82795876 Ry
     estimated scf accuracy    <       0.12705444 Ry

     iteration # 15     ecut=    50.00 Ry     beta= 0.40
     Davidson diagonalization with overlap
     ethr =  4.54E-06,  avg # of iterations = 52.0

     negative rho (up, down):  2.260E+00 0.000E+00

     total cpu time spent up to now is     6936.6 secs

     total energy              =  -31773.77821853 Ry
     Harris-Foulkes estimate   =  -31773.78634249 Ry
     estimated scf accuracy    <       0.10374840 Ry

     iteration # 16     ecut=    50.00 Ry     beta= 0.40
     Davidson diagonalization with overlap
     ethr =  3.71E-06,  avg # of iterations = 55.0

     negative rho (up, down):  1.708E+00 0.000E+00

     total cpu time spent up to now is     7642.0 secs

     total energy              =  -31773.70116903 Ry
     Harris-Foulkes estimate   =  -31773.78013115 Ry
     estimated scf accuracy    <       0.11616005 Ry

     iteration # 17     ecut=    50.00 Ry     beta= 0.40
     Davidson diagonalization with overlap
     ethr =  3.71E-06,  avg # of iterations = 32.0

     negative rho (up, down):  1.087E+00 0.000E+00

     total cpu time spent up to now is     8270.3 secs

     total energy              =  -31773.71475411 Ry
     Harris-Foulkes estimate   =  -31773.72033687 Ry
     estimated scf accuracy    <       0.01470442 Ry

     iteration # 18     ecut=    50.00 Ry     beta= 0.40
     Davidson diagonalization with overlap
     c_bands:  3 eigenvalues not converged
     ethr =  5.25E-07,  avg # of iterations = 60.0

     negative rho (up, down):  5.780E-01 0.000E+00

     total cpu time spent up to now is     8998.6 secs

     total energy              =  -31773.70789407 Ry
     Harris-Foulkes estimate   =  -31773.71500811 Ry
     estimated scf accuracy    <       0.00660585 Ry

     iteration # 19     ecut=    50.00 Ry     beta= 0.40
     Davidson diagonalization with overlap
     c_bands:  4 eigenvalues not converged
     ethr =  2.36E-07,  avg # of iterations = 60.0

     negative rho (up, down):  3.075E-01 0.000E+00

     total cpu time spent up to now is     9709.1 secs

     total energy              =  -31773.70810726 Ry
     Harris-Foulkes estimate   =  -31773.70799376 Ry
     estimated scf accuracy    <       0.00269745 Ry

     iteration # 20     ecut=    50.00 Ry     beta= 0.40
     Davidson diagonalization with overlap
     c_bands:  4 eigenvalues not converged
     ethr =  9.63E-08,  avg # of iterations = 40.0

     negative rho (up, down):  1.563E-01 0.000E+00

     total cpu time spent up to now is    10226.0 secs

     total energy              =  -31773.70893421 Ry
     Harris-Foulkes estimate   =  -31773.70814100 Ry
     estimated scf accuracy    <       0.00130269 Ry

     iteration # 21     ecut=    50.00 Ry     beta= 0.40
     Davidson diagonalization with overlap
     c_bands:  3 eigenvalues not converged
     ethr =  4.65E-08,  avg # of iterations = 20.0

     negative rho (up, down):  7.430E-02 0.000E+00

     total cpu time spent up to now is    10627.3 secs

     total energy              =  -31773.70880142 Ry
     Harris-Foulkes estimate   =  -31773.70898081 Ry
     estimated scf accuracy    <       0.00052777 Ry

     iteration # 22     ecut=    50.00 Ry     beta= 0.40
     Davidson diagonalization with overlap
     c_bands:  2 eigenvalues not converged
     ethr =  1.88E-08,  avg # of iterations = 20.0

     negative rho (up, down):  6.201E-02 0.000E+00

     total cpu time spent up to now is    11047.8 secs

     total energy              =  -31773.70895343 Ry
     Harris-Foulkes estimate   =  -31773.70886275 Ry
     estimated scf accuracy    <       0.00003281 Ry

     iteration # 23     ecut=    50.00 Ry     beta= 0.40
     Davidson diagonalization with overlap
     c_bands:  1 eigenvalues not converged
     ethr =  1.17E-09,  avg # of iterations = 20.0

     negative rho (up, down):  4.977E-02 0.000E+00

     total cpu time spent up to now is    11496.1 secs

     total energy              =  -31773.70898265 Ry
     Harris-Foulkes estimate   =  -31773.70895635 Ry
     estimated scf accuracy    <       0.00001657 Ry

     iteration # 24     ecut=    50.00 Ry     beta= 0.40
     Davidson diagonalization with overlap
     ethr =  5.92E-10,  avg # of iterations =  2.0

     negative rho (up, down):  4.561E-02 0.000E+00

     total cpu time spent up to now is    11851.2 secs

     total energy              =  -31773.70898017 Ry
     Harris-Foulkes estimate   =  -31773.70898329 Ry
     estimated scf accuracy    <       0.00000873 Ry

     iteration # 25     ecut=    50.00 Ry     beta= 0.40
     Davidson diagonalization with overlap
     ethr =  3.12E-10,  avg # of iterations =  2.0

     negative rho (up, down):  4.362E-02 0.000E+00

     total cpu time spent up to now is    12231.0 secs

     total energy              =  -31773.70897676 Ry
     Harris-Foulkes estimate   =  -31773.70898033 Ry
     estimated scf accuracy    <       0.00000486 Ry

     iteration # 26     ecut=    50.00 Ry     beta= 0.40
     Davidson diagonalization with overlap
     ethr =  1.74E-10,  avg # of iterations =  2.0

     negative rho (up, down):  4.267E-02 0.000E+00

     total cpu time spent up to now is    12531.8 secs

     total energy              =  -31773.70897415 Ry
     Harris-Foulkes estimate   =  -31773.70897688 Ry
     estimated scf accuracy    <       0.00000218 Ry

     iteration # 27     ecut=    50.00 Ry     beta= 0.40
     Davidson diagonalization with overlap
     ethr =  7.79E-11,  avg # of iterations =  2.0

     negative rho (up, down):  4.062E-02 0.000E+00

     total cpu time spent up to now is    12817.0 secs

     total energy              =  -31773.70897719 Ry
     Harris-Foulkes estimate   =  -31773.70897420 Ry
     estimated scf accuracy    <       0.00000089 Ry

     iteration # 28     ecut=    50.00 Ry     beta= 0.40
     Davidson diagonalization with overlap
     ethr =  3.17E-11,  avg # of iterations =  2.0

     negative rho (up, down):  4.015E-02 0.000E+00

     total cpu time spent up to now is    13183.2 secs

     total energy              =  -31773.70897769 Ry
     Harris-Foulkes estimate   =  -31773.70897722 Ry
     estimated scf accuracy    <       0.00000012 Ry

     iteration # 29     ecut=    50.00 Ry     beta= 0.40
     Davidson diagonalization with overlap
     ethr =  4.15E-12,  avg # of iterations =  3.0

     negative rho (up, down):  4.007E-02 0.000E+00

     total cpu time spent up to now is    13570.2 secs

     total energy              =  -31773.70897750 Ry
     Harris-Foulkes estimate   =  -31773.70897770 Ry
     estimated scf accuracy    <       0.00000005 Ry

     iteration # 30     ecut=    50.00 Ry     beta= 0.40
     Davidson diagonalization with overlap
     ethr =  1.82E-12,  avg # of iterations =  3.0

     negative rho (up, down):  4.012E-02 0.000E+00

     total cpu time spent up to now is    13775.6 secs

     End of self-consistent calculation

          k = 0.0000 0.0000 0.0000 (****** PWs)   bands (ev):

   -25.2043 -25.1845 -25.1641 -25.1287 -25.1073 -25.0995 -25.0953 -25.0801
   -25.0756 -25.0754 -25.0669 -25.0606 -25.0511 -25.0473 -25.0432 -25.0429
   -25.0407 -25.0396 -25.0382 -25.0374 -25.0268 -25.0170 -25.0067 -25.0027
   -24.9978 -24.9974 -24.9956 -24.9919 -24.9911 -24.9884 -24.9882 -24.9854
   -24.9851 -24.9839 -24.9818 -24.9787 -24.9782 -24.9775 -24.9770 -24.9762
   -24.9759 -24.9757 -24.9735 -24.9706 -24.9697 -24.9688 -24.9664 -24.9659
   -24.9638 -24.9634 -24.9630 -24.9622 -24.9616 -24.9606 -24.9593 -24.9591
   -24.9557 -24.9550 -24.9542 -24.9540 -24.9527 -24.9515 -24.9514 -24.9503
   -24.9495 -24.9484 -24.9477 -24.9458 -24.9456 -24.9445 -24.9436 -24.9431
   -24.9427 -24.9415 -24.9402 -24.9394 -24.9389 -24.9384 -24.9360 -24.9358
   -24.9334 -24.9333 -24.9325 -24.9303 -24.9302 -24.9290 -24.9277 -24.9270
   -24.9265 -24.9254 -24.9251 -24.9240 -24.9230 -24.9220 -24.9220 -24.9210
   -24.9210 -24.9195 -24.9193 -24.9192 -24.9180 -24.9178 -24.9167 -24.9161
   -24.9156 -24.9152 -24.9147 -24.9137 -24.9134 -24.9126 -24.9109 -24.9102
   -24.9096 -24.9088 -24.9084 -24.9081 -24.9075 -24.9064 -24.9056 -24.9049
   -24.9039 -24.9032 -24.9027 -24.9025 -24.9020 -24.9006 -24.9006 -24.8997
   -24.8991 -24.8989 -24.8979 -24.8978 -24.8966 -24.8961 -24.8957 -24.8952
   -24.8950 -24.8945 -24.8943 -24.8925 -24.8914 -24.8909 -24.8907 -24.8903
   -24.8901 -24.8894 -24.8884 -24.8879 -24.8858 -24.8851 -24.8848 -24.8842
   -24.8841 -24.8839 -24.8832 -24.8826 -24.8821 -24.8818 -24.8810 -24.8794
   -24.8791 -24.8789 -24.8785 -24.8780 -24.8777 -24.8770 -24.8765 -24.8760
   -24.8748 -24.8741 -24.8738 -24.8731 -24.8731 -24.8721 -24.8719 -24.8713
   -24.8698 -24.8689 -24.8683 -24.8679 -24.8675 -24.8670 -24.8669 -24.8661
   -24.8653 -24.8650 -24.8649 -24.8644 -24.8635 -24.8623 -24.8620 -24.8618
   -24.8610 -24.8605 -24.8603 -24.8596 -24.8593 -24.8590 -24.8581 -24.8579
   -24.8571 -24.8568 -24.8558 -24.8554 -24.8547 -24.8540 -24.8537 -24.8528
   -24.8521 -24.8520 -24.8516 -24.8513 -24.8511 -24.8500 -24.8498 -24.8496
   -24.8492 -24.8482 -24.8471 -24.8471 -24.8464 -24.8459 -24.8457 -24.8450
   -24.8447 -24.8439 -24.8436 -24.8436 -24.8432 -24.8425 -24.8420 -24.8416
   -24.8406 -24.8400 -24.8389 -24.8389 -24.8382 -24.8377 -24.8372 -24.8367
   -24.8362 -24.8352 -24.8348 -24.8343 -24.8338 -24.8336 -24.8333 -24.8326
   -24.8323 -24.8319 -24.8312 -24.8309 -24.8305 -24.8301 -24.8298 -24.8292
   -24.8292 -24.8286 -24.8285 -24.8283 -24.8277 -24.8273 -24.8270 -24.8267
   -24.8260 -24.8258 -24.8251 -24.8250 -24.8246 -24.8243 -24.8240 -24.8234
   -24.8232 -24.8224 -24.8222 -24.8218 -24.8213 -24.8212 -24.8210 -24.8207
   -24.8197 -24.8196 -24.8192 -24.8188 -24.8184 -24.8182 -24.8178 -24.8170
   -24.8163 -24.8159 -24.8155 -24.8146 -24.8139 -24.8137 -24.8133 -24.8132
   -24.8130 -24.8125 -24.8118 -24.8113 -24.8111 -24.8107 -24.8102 -24.8098
   -24.8097 -24.8087 -24.8083 -24.8078 -24.8072 -24.8066 -24.8062 -24.8062
   -24.8052 -24.8048 -24.8040 -24.8034 -24.8025 -24.8021 -24.8017 -24.8015
   -24.8011 -24.8008 -24.8002 -24.7999 -24.7999 -24.7992 -24.7988 -24.7986
   -24.7981 -24.7974 -24.7970 -24.7968 -24.7959 -24.7957 -24.7953 -24.7948
   -24.7943 -24.7940 -24.7937 -24.7929 -24.7926 -24.7921 -24.7913 -24.7909
   -24.7908 -24.7901 -24.7895 -24.7891 -24.7885 -24.7882 -24.7876 -24.7874
   -24.7868 -24.7863 -24.7855 -24.7850 -24.7846 -24.7844 -24.7841 -24.7834
   -24.7830 -24.7828 -24.7824 -24.7819 -24.7817 -24.7814 -24.7808 -24.7800
   -24.7796 -24.7794 -24.7789 -24.7785 -24.7781 -24.7778 -24.7772 -24.7771
   -24.7761 -24.7756 -24.7748 -24.7748 -24.7742 -24.7736 -24.7732 -24.7729
   -24.7726 -24.7723 -24.7720 -24.7711 -24.7707 -24.7704 -24.7699 -24.7692
   -24.7689 -24.7685 -24.7684 -24.7681 -24.7678 -24.7673 -24.7665 -24.7659
   -24.7657 -24.7653 -24.7653 -24.7648 -24.7644 -24.7643 -24.7635 -24.7631
   -24.7627 -24.7624 -24.7618 -24.7614 -24.7607 -24.7604 -24.7597 -24.7591
   -24.7589 -24.7582 -24.7581 -24.7573 -24.7562 -24.7556 -24.7552 -24.7547
   -24.7540 -24.7536 -24.7533 -24.7530 -24.7529 -24.7522 -24.7520 -24.7515
   -24.7510 -24.7508 -24.7501 -24.7499 -24.7496 -24.7492 -24.7481 -24.7479
   -24.7475 -24.7472 -24.7463 -24.7462 -24.7453 -24.7451 -24.7447 -24.7444
   -24.7439 -24.7433 -24.7422 -24.7419 -24.7412 -24.7409 -24.7403 -24.7398
   -24.7391 -24.7390 -24.7386 -24.7379 -24.7377 -24.7369 -24.7364 -24.7363
   -24.7359 -24.7353 -24.7350 -24.7346 -24.7343 -24.7339 -24.7337 -24.7332
   -24.7328 -24.7315 -24.7310 -24.7305 -24.7301 -24.7297 -24.7289 -24.7286
   -24.7275 -24.7268 -24.7267 -24.7261 -24.7258 -24.7255 -24.7248 -24.7245
   -24.7241 -24.7235 -24.7232 -24.7224 -24.7221 -24.7216 -24.7212 -24.7211
   -24.7208 -24.7204 -24.7201 -24.7197 -24.7192 -24.7187 -24.7186 -24.7182
   -24.7176 -24.7170 -24.7168 -24.7162 -24.7160 -24.7150 -24.7146 -24.7139
   -24.7136 -24.7133 -24.7128 -24.7116 -24.7113 -24.7108 -24.7104 -24.7098
   -24.7093 -24.7092 -24.7089 -24.7080 -24.7078 -24.7074 -24.7071 -24.7068
   -24.7064 -24.7057 -24.7053 -24.7048 -24.7043 -24.7041 -24.7039 -24.7031
   -24.7021 -24.7015 -24.7012 -24.7008 -24.7002 -24.6991 -24.6987 -24.6981
   -24.6979 -24.6974 -24.6968 -24.6965 -24.6957 -24.6953 -24.6944 -24.6943
   -24.6938 -24.6931 -24.6928 -24.6921 -24.6918 -24.6915 -24.6911 -24.6906
   -24.6898 -24.6896 -24.6884 -24.6878 -24.6875 -24.6874 -24.6868 -24.6867
   -24.6864 -24.6855 -24.6847 -24.6845 -24.6840 -24.6835 -24.6829 -24.6821
   -24.6819 -24.6810 -24.6806 -24.6805 -24.6800 -24.6795 -24.6785 -24.6777
   -24.6772 -24.6764 -24.6762 -24.6755 -24.6752 -24.6748 -24.6740 -24.6737
   -24.6734 -24.6730 -24.6725 -24.6721 -24.6716 -24.6711 -24.6709 -24.6701
   -24.6700 -24.6696 -24.6689 -24.6687 -24.6682 -24.6672 -24.6671 -24.6667
   -24.6661 -24.6653 -24.6648 -24.6641 -24.6638 -24.6630 -24.6626 -24.6622
   -24.6618 -24.6615 -24.6609 -24.6602 -24.6601 -24.6595 -24.6590 -24.6580
   -24.6574 -24.6571 -24.6566 -24.6566 -24.6562 -24.6550 -24.6548 -24.6543
   -24.6536 -24.6533 -24.6530 -24.6517 -24.6514 -24.6508 -24.6503 -24.6497
   -24.6490 -24.6487 -24.6481 -24.6477 -24.6472 -24.6459 -24.6456 -24.6455
   -24.6453 -24.6447 -24.6443 -24.6435 -24.6426 -24.6420 -24.6417 -24.6409
   -24.6405 -24.6398 -24.6395 -24.6391 -24.6380 -24.6374 -24.6369 -24.6362
   -24.6361 -24.6357 -24.6352 -24.6348 -24.6344 -24.6336 -24.6328 -24.6323
   -24.6319 -24.6315 -24.6310 -24.6308 -24.6301 -24.6296 -24.6293 -24.6284
   -24.6281 -24.6277 -24.6271 -24.6269 -24.6263 -24.6262 -24.6260 -24.6256
   -24.6249 -24.6243 -24.6236 -24.6233 -24.6223 -24.6219 -24.6207 -24.6205
   -24.6193 -24.6188 -24.6183 -24.6180 -24.6174 -24.6170 -24.6168 -24.6164
   -24.6157 -24.6151 -24.6150 -24.6146 -24.6142 -24.6137 -24.6134 -24.6129
   -24.6126 -24.6121 -24.6115 -24.6107 -24.6103 -24.6096 -24.6090 -24.6088
   -24.6082 -24.6078 -24.6074 -24.6069 -24.6064 -24.6063 -24.6043 -24.6039
   -24.6035 -24.6031 -24.6022 -24.6018 -24.6017 -24.6010 -24.6005 -24.6000
   -24.5998 -24.5993 -24.5984 -24.5975 -24.5972 -24.5966 -24.5960 -24.5955
   -24.5951 -24.5943 -24.5932 -24.5930 -24.5928 -24.5920 -24.5918 -24.5915
   -24.5914 -24.5907 -24.5903 -24.5895 -24.5886 -24.5885 -24.5879 -24.5878
   -24.5871 -24.5865 -24.5864 -24.5858 -24.5848 -24.5843 -24.5835 -24.5828
   -24.5825 -24.5823 -24.5819 -24.5817 -24.5807 -24.5797 -24.5792 -24.5782
   -24.5780 -24.5774 -24.5771 -24.5756 -24.5755 -24.5741 -24.5736 -24.5733
   -24.5729 -24.5724 -24.5718 -24.5713 -24.5706 -24.5703 -24.5694 -24.5692
   -24.5682 -24.5680 -24.5671 -24.5670 -24.5669 -24.5661 -24.5656 -24.5654
   -24.5647 -24.5645 -24.5637 -24.5635 -24.5624 -24.5621 -24.5618 -24.5608
   -24.5602 -24.5594 -24.5593 -24.5580 -24.5578 -24.5565 -24.5552 -24.5550
   -24.5547 -24.5541 -24.5533 -24.5532 -24.5528 -24.5526 -24.5521 -24.5516
   -24.5509 -24.5501 -24.5496 -24.5487 -24.5484 -24.5482 -24.5470 -24.5458
   -24.5448 -24.5438 -24.5434 -24.5427 -24.5420 -24.5410 -24.5394 -24.5388
   -24.5386 -24.5374 -24.5369 -24.5365 -24.5361 -24.5357 -24.5357 -24.5352
   -24.5346 -24.5329 -24.5326 -24.5315 -24.5306 -24.5305 -24.5283 -24.5283
   -24.5282 -24.5264 -24.5261 -24.5256 -24.5251 -24.5247 -24.5245 -24.5235
   -24.5235 -24.5231 -24.5225 -24.5219 -24.5216 -24.5202 -24.5194 -24.5192
   -24.5178 -24.5174 -24.5165 -24.5158 -24.5147 -24.5139 -24.5132 -24.5124
   -24.5120 -24.5111 -24.5109 -24.5089 -24.5079 -24.5078 -24.5075 -24.5072
   -24.5063 -24.5053 -24.5046 -24.5038 -24.5036 -24.5021 -24.5010 -24.5001
   -24.4999 -24.4991 -24.4987 -24.4978 -24.4974 -24.4962 -24.4956 -24.4937
   -24.4934 -24.4921 -24.4915 -24.4908 -24.4903 -24.4897 -24.4889 -24.4875
   -24.4869 -24.4862 -24.4854 -24.4853 -24.4826 -24.4819 -24.4801 -24.4796
   -24.4791 -24.4783 -24.4776 -24.4774 -24.4750 -24.4745 -24.4739 -24.4738
   -24.4731 -24.4724 -24.4722 -24.4716 -24.4710 -24.4705 -24.4700 -24.4684
   -24.4679 -24.4653 -24.4647 -24.4643 -24.4629 -24.4604 -24.4584 -24.4571
   -24.4544 -24.4539 -24.4519 -24.4510 -24.4501 -24.4494 -24.4479 -24.4470
   -24.4448 -24.4435 -24.4433 -24.4427 -24.4420 -24.4414 -24.4398 -24.4390
   -24.4376 -24.4372 -24.4365 -24.4311 -24.4308 -24.4301 -24.4283 -24.4278
   -24.4259 -24.4252 -24.4243 -24.4221 -24.4212 -24.4156 -24.4120 -24.4120
   -24.4080 -24.4067 -24.4011 -24.3955 -24.3944 -24.3940 -24.3911 -24.3894
   -24.3885 -24.3879 -24.3872 -24.3861 -24.3781 -24.3762 -24.3696 -24.3691
   -24.3671 -24.3575 -24.3493 -24.3361 -24.3360 -24.3345 -24.3271 -24.3144
   -13.9953 -13.9315 -13.5559 -13.4999 -13.4109 -13.3418 -13.2449 -13.2187
   -13.2168 -13.1032 -13.0608 -12.9928 -12.9737 -12.9113 -12.9071 -12.8311
   -12.7790 -12.7719 -12.6957 -12.6879 -12.6325 -12.6213 -12.5813 -12.5505
   -12.5203 -12.4945 -12.4579 -12.4186 -12.3703 -12.3557 -12.3216 -12.2920
   -12.2656 -12.2416 -12.1834 -12.1760 -12.1704 -12.1271 -12.0863 -12.0422
   -12.0339 -12.0108 -11.9907 -11.9386 -11.9107 -11.8928 -11.8721 -11.8512
   -11.8054 -11.7666 -11.7586 -11.7304 -11.7068 -11.6719 -11.6582 -11.6335
   -11.5858 -11.5589 -11.5361 -11.4953 -11.4731 -11.4667 -11.4241 -11.4124
   -11.4044 -11.3328 -11.3276 -11.2929 -11.2612 -11.2088 -11.1721 -11.1187
   -11.0999 -11.0776 -11.0679 -11.0272 -10.9992 -10.9682 -10.9573 -10.9172
   -10.8823 -10.8261 -10.7968 -10.7643 -10.7553 -10.7044 -10.6755 -10.6570
   -10.6058 -10.5865 -10.5435 -10.5361 -10.5032 -10.4930 -10.4084 -10.3793
   -10.3741 -10.3258 -10.2883 -10.2698 -10.2276 -10.2192 -10.1942 -10.1714
   -10.1162 -10.0877 -10.0681 -10.0516 -10.0332  -9.9885  -9.9576  -9.9246
    -9.9023  -9.8799  -9.8504  -9.8416  -9.8127  -9.8072  -9.7782  -9.7194
    -9.7149  -9.6922  -9.6594  -9.6537  -9.6040  -9.5831  -9.5406  -9.5134
    -9.4965  -9.4865  -9.4302  -9.4204  -9.4104  -9.3774  -9.3496  -9.3200
    -9.3029  -9.2903  -9.2373  -9.2330  -9.2244  -9.2009  -9.1536  -9.1240
    -9.1201  -9.0863  -9.0605  -9.0303  -8.9869  -8.9811  -8.9654  -8.9503
    -8.9208  -8.9142  -8.8908  -8.8446  -8.8383  -8.8061  -8.7931  -8.7799
    -8.7330  -8.7023  -8.6847  -8.6794  -8.6252  -8.6038  -8.5561  -8.5377
    -8.5230  -8.5005  -8.4839  -8.4749  -8.4161  -8.3930  -8.3783  -8.3444
    -8.3303  -8.2803  -8.2597  -8.2198  -8.1624  -8.1326  -8.1088  -8.0881
    -8.0388  -7.9740  -7.9327  -7.8543  -7.8411  -7.7662  -7.6552  -7.5849
    -7.5578  -7.5425  -7.4601  -7.3990  -7.2261  -7.0935  -6.9056  -6.6703
    -6.4538  -6.4332  -6.3714  -6.3458  -6.3006  -6.2721  -6.2693  -6.2395
    -6.2233  -6.2128  -6.2012  -6.1822  -6.1581  -6.1428  -6.1227  -6.1201
    -6.1025  -6.0744  -6.0648  -6.0316  -5.9916  -5.9804  -5.9603  -5.9561
    -5.9457  -5.9361  -5.9254  -5.8970  -5.8853  -5.8546  -5.8478  -5.8431
    -5.7996  -5.7987  -5.7721  -5.7719  -5.7602  -5.7308  -5.7070  -5.6990
    -5.6848  -5.6744  -5.6617  -5.6258  -5.6167  -5.5960  -5.5844  -5.5731
    -5.5565  -5.5491  -5.5280  -5.5152  -5.4896  -5.4762  -5.4641  -5.4460
    -5.4265  -5.4060  -5.3963  -5.3853  -5.3752  -5.3566  -5.3438  -5.3239
    -5.3048  -5.2788  -5.2703  -5.2641  -5.2556  -5.2474  -5.2256  -5.2172
    -5.1975  -5.1739  -5.1661  -5.1536  -5.1338  -5.1032  -5.0974  -5.0875
    -5.0694  -5.0523  -5.0443  -5.0254  -5.0127  -4.9965  -4.9808  -4.9784
    -4.9593  -4.9515  -4.9420  -4.9214  -4.9050  -4.8953  -4.8708  -4.8594
    -4.8361  -4.8260  -4.8103  -4.7991  -4.7933  -4.7764  -4.7741  -4.7487
    -4.7369  -4.7323  -4.7268  -4.7148  -4.6935  -4.6791  -4.6744  -4.6608
    -4.6387  -4.6318  -4.6118  -4.6049  -4.5912  -4.5645  -4.5485  -4.5357
    -4.5286  -4.5145  -4.5029  -4.4935  -4.4849  -4.4557  -4.4465  -4.4280
    -4.4196  -4.4051  -4.3987  -4.3872  -4.3709  -4.3668  -4.3581  -4.3401
    -4.3177  -4.3010  -4.2936  -4.2612  -4.2594  -4.2485  -4.2411  -4.2362
    -4.2187  -4.2029  -4.1973  -4.1736  -4.1530  -4.1346  -4.1312  -4.1166
    -4.0957  -4.0877  -4.0646  -4.0598  -4.0244  -4.0231  -4.0143  -4.0093
    -3.9738  -3.9516  -3.9341  -3.9202  -3.9185  -3.8916  -3.8803  -3.8673
    -3.8526  -3.8422  -3.8349  -3.8125  -3.8040  -3.7973  -3.7798  -3.7562
    -3.7502  -3.7441  -3.7022  -3.6920  -3.6769  -3.6712  -3.6530  -3.6323
    -3.6199  -3.6068  -3.5861  -3.5762  -3.5457  -3.5386  -3.5295  -3.5127
    -3.5033  -3.4963  -3.4728  -3.4641  -3.4354  -3.4260  -3.4120  -3.4055
    -3.3862  -3.3619  -3.3513  -3.3485  -3.3374  -3.3265  -3.3110  -3.2887
    -3.2753  -3.2658  -3.2508  -3.2397  -3.2262  -3.2107  -3.2080  -3.1858
    -3.1679  -3.1545  -3.1362  -3.1215  -3.1036  -3.0814  -3.0742  -3.0590
    -3.0570  -3.0347  -3.0227  -3.0073  -2.9943  -2.9830  -2.9642  -2.9437
    -2.9349  -2.9163  -2.9057  -2.8854  -2.8651  -2.8563  -2.8455  -2.8211
    -2.8173  -2.8128  -2.7739  -2.7475  -2.7372  -2.7316  -2.7219  -2.7036
    -2.6934  -2.6736  -2.6542  -2.6407  -2.6171  -2.6054  -2.5879  -2.5688
    -2.5551  -2.5479  -2.5384  -2.5060  -2.4993  -2.4899  -2.4568  -2.4556
    -2.4446  -2.4178  -2.4058  -2.3956  -2.3855  -2.3679  -2.3581  -2.3488
    -2.3269  -2.3121  -2.2875  -2.2719  -2.2665  -2.2525  -2.2444  -2.2052
    -2.1936  -2.1800  -2.1787  -2.1640  -2.1522  -2.1256  -2.1180  -2.1010
    -2.0914  -2.0761  -2.0681  -2.0451  -2.0375  -2.0130  -1.9980  -1.9871
    -1.9823  -1.9615  -1.9517  -1.9308  -1.9144  -1.9063  -1.8969  -1.8872
    -1.8736  -1.8451  -1.8441  -1.8289  -1.8069  -1.7998  -1.7886  -1.7689
    -1.7551  -1.7442  -1.7262  -1.7193  -1.7073  -1.6971  -1.6850  -1.6681
    -1.6441  -1.6228  -1.6176  -1.6034  -1.5978  -1.5782  -1.5591  -1.5338
    -1.5213  -1.5077  -1.4904  -1.4874  -1.4672  -1.4500  -1.4443  -1.4302
    -1.4142  -1.3897  -1.3683  -1.3588  -1.3556  -1.3266  -1.3190  -1.3113
    -1.2970  -1.2835  -1.2599  -1.2401  -1.2134  -1.2078  -1.2036  -1.1797
    -1.1595  -1.1524  -1.1460  -1.1271  -1.1197  -1.1059  -1.0995  -1.0897
    -1.0633  -1.0567  -1.0403  -1.0196  -1.0114  -0.9709  -0.9543  -0.9476
    -0.9332  -0.9226  -0.8887  -0.8824  -0.8646  -0.8585  -0.8455  -0.8355
    -0.8163  -0.7898  -0.7720  -0.7644  -0.7454  -0.7321  -0.7158  -0.6998
    -0.6908  -0.6861  -0.6686  -0.6552  -0.6255  -0.6138  -0.6060  -0.5868
    -0.5826  -0.5740  -0.5546  -0.5357  -0.5332  -0.5260  -0.5034  -0.4930
    -0.4812  -0.4714  -0.4589  -0.4470  -0.4373  -0.4352  -0.4145  -0.3844
    -0.3809  -0.3568  -0.3516  -0.3483  -0.3384  -0.3271  -0.3179  -0.3086
    -0.2894  -0.2727  -0.2652  -0.2572  -0.2469  -0.2238  -0.2203  -0.2090
    -0.1754  -0.1651  -0.1650  -0.1413  -0.1316  -0.1192  -0.1056  -0.0983
    -0.0795  -0.0738  -0.0718  -0.0533  -0.0470  -0.0244  -0.0162  -0.0086
     0.0045   0.0101   0.0304   0.0360   0.0603   0.0842   0.0912   0.1041
     0.1170   0.1193   0.1330   0.1478   0.1619   0.1741   0.1820   0.1959
     0.1985   0.2132   0.2277   0.2316   0.2468   0.2545   0.2742   0.2934
     0.3098   0.3129   0.3237   0.3418   0.3487   0.3524   0.3733   0.3806
     0.3894   0.4012   0.4176   0.4243   0.4301   0.4317   0.4486   0.4621

     occupation numbers 
     1.0000   1.0000   1.0000   1.0000   1.0000   1.0000   1.0000   1.0000
     1.0000   1.0000   1.0000   1.0000   1.0000   1.0000   1.0000   1.0000
     1.0000   1.0000   1.0000   1.0000   1.0000   1.0000   1.0000   1.0000
     1.0000   1.0000   1.0000   1.0000   1.0000   1.0000   1.0000   1.0000
     1.0000   1.0000   1.0000   1.0000   1.0000   1.0000   1.0000   1.0000
     1.0000   1.0000   1.0000   1.0000   1.0000   1.0000   1.0000   1.0000
     1.0000   1.0000   1.0000   1.0000   1.0000   1.0000   1.0000   1.0000
     1.0000   1.0000   1.0000   1.0000   1.0000   1.0000   1.0000   1.0000
     1.0000   1.0000   1.0000   1.0000   1.0000   1.0000   1.0000   1.0000
     1.0000   1.0000   1.0000   1.0000   1.0000   1.0000   1.0000   1.0000
     1.0000   1.0000   1.0000   1.0000   1.0000   1.0000   1.0000   1.0000
     1.0000   1.0000   1.0000   1.0000   1.0000   1.0000   1.0000   1.0000
     1.0000   1.0000   1.0000   1.0000   1.0000   1.0000   1.0000   1.0000
     1.0000   1.0000   1.0000   1.0000   1.0000   1.0000   1.0000   1.0000
     1.0000   1.0000   1.0000   1.0000   1.0000   1.0000   1.0000   1.0000
     1.0000   1.0000   1.0000   1.0000   1.0000   1.0000   1.0000   1.0000
     1.0000   1.0000   1.0000   1.0000   1.0000   1.0000   1.0000   1.0000
     1.0000   1.0000   1.0000   1.0000   1.0000   1.0000   1.0000   1.0000
     1.0000   1.0000   1.0000   1.0000   1.0000   1.0000   1.0000   1.0000
     1.0000   1.0000   1.0000   1.0000   1.0000   1.0000   1.0000   1.0000
     1.0000   1.0000   1.0000   1.0000   1.0000   1.0000   1.0000   1.0000
     1.0000   1.0000   1.0000   1.0000   1.0000   1.0000   1.0000   1.0000
     1.0000   1.0000   1.0000   1.0000   1.0000   1.0000   1.0000   1.0000
     1.0000   1.0000   1.0000   1.0000   1.0000   1.0000   1.0000   1.0000
     1.0000   1.0000   1.0000   1.0000   1.0000   1.0000   1.0000   1.0000
     1.0000   1.0000   1.0000   1.0000   1.0000   1.0000   1.0000   1.0000
     1.0000   1.0000   1.0000   1.0000   1.0000   1.0000   1.0000   1.0000
     1.0000   1.0000   1.0000   1.0000   1.0000   1.0000   1.0000   1.0000
     1.0000   1.0000   1.0000   1.0000   1.0000   1.0000   1.0000   1.0000
     1.0000   1.0000   1.0000   1.0000   1.0000   1.0000   1.0000   1.0000
     1.0000   1.0000   1.0000   1.0000   1.0000   1.0000   1.0000   1.0000
     1.0000   1.0000   1.0000   1.0000   1.0000   1.0000   1.0000   1.0000
     1.0000   1.0000   1.0000   1.0000   1.0000   1.0000   1.0000   1.0000
     1.0000   1.0000   1.0000   1.0000   1.0000   1.0000   1.0000   1.0000
     1.0000   1.0000   1.0000   1.0000   1.0000   1.0000   1.0000   1.0000
     1.0000   1.0000   1.0000   1.0000   1.0000   1.0000   1.0000   1.0000
     1.0000   1.0000   1.0000   1.0000   1.0000   1.0000   1.0000   1.0000
     1.0000   1.0000   1.0000   1.0000   1.0000   1.0000   1.0000   1.0000
     1.0000   1.0000   1.0000   1.0000   1.0000   1.0000   1.0000   1.0000
     1.0000   1.0000   1.0000   1.0000   1.0000   1.0000   1.0000   1.0000
     1.0000   1.0000   1.0000   1.0000   1.0000   1.0000   1.0000   1.0000
     1.0000   1.0000   1.0000   1.0000   1.0000   1.0000   1.0000   1.0000
     1.0000   1.0000   1.0000   1.0000   1.0000   1.0000   1.0000   1.0000
     1.0000   1.0000   1.0000   1.0000   1.0000   1.0000   1.0000   1.0000
     1.0000   1.0000   1.0000   1.0000   1.0000   1.0000   1.0000   1.0000
     1.0000   1.0000   1.0000   1.0000   1.0000   1.0000   1.0000   1.0000
     1.0000   1.0000   1.0000   1.0000   1.0000   1.0000   1.0000   1.0000
     1.0000   1.0000   1.0000   1.0000   1.0000   1.0000   1.0000   1.0000
     1.0000   1.0000   1.0000   1.0000   1.0000   1.0000   1.0000   1.0000
     1.0000   1.0000   1.0000   1.0000   1.0000   1.0000   1.0000   1.0000
     1.0000   1.0000   1.0000   1.0000   1.0000   1.0000   1.0000   1.0000
     1.0000   1.0000   1.0000   1.0000   1.0000   1.0000   1.0000   1.0000
     1.0000   1.0000   1.0000   1.0000   1.0000   1.0000   1.0000   1.0000
     1.0000   1.0000   1.0000   1.0000   1.0000   1.0000   1.0000   1.0000
     1.0000   1.0000   1.0000   1.0000   1.0000   1.0000   1.0000   1.0000
     1.0000   1.0000   1.0000   1.0000   1.0000   1.0000   1.0000   1.0000
     1.0000   1.0000   1.0000   1.0000   1.0000   1.0000   1.0000   1.0000
     1.0000   1.0000   1.0000   1.0000   1.0000   1.0000   1.0000   1.0000
     1.0000   1.0000   1.0000   1.0000   1.0000   1.0000   1.0000   1.0000
     1.0000   1.0000   1.0000   1.0000   1.0000   1.0000   1.0000   1.0000
     1.0000   1.0000   1.0000   1.0000   1.0000   1.0000   1.0000   1.0000
     1.0000   1.0000   1.0000   1.0000   1.0000   1.0000   1.0000   1.0000
     1.0000   1.0000   1.0000   1.0000   1.0000   1.0000   1.0000   1.0000
     1.0000   1.0000   1.0000   1.0000   1.0000   1.0000   1.0000   1.0000
     1.0000   1.0000   1.0000   1.0000   1.0000   1.0000   1.0000   1.0000
     1.0000   1.0000   1.0000   1.0000   1.0000   1.0000   1.0000   1.0000
     1.0000   1.0000   1.0000   1.0000   1.0000   1.0000   1.0000   1.0000
     1.0000   1.0000   1.0000   1.0000   1.0000   1.0000   1.0000   1.0000
     1.0000   1.0000   1.0000   1.0000   1.0000   1.0000   1.0000   1.0000
     1.0000   1.0000   1.0000   1.0000   1.0000   1.0000   1.0000   1.0000
     1.0000   1.0000   1.0000   1.0000   1.0000   1.0000   1.0000   1.0000
     1.0000   1.0000   1.0000   1.0000   1.0000   1.0000   1.0000   1.0000
     1.0000   1.0000   1.0000   1.0000   1.0000   1.0000   1.0000   1.0000
     1.0000   1.0000   1.0000   1.0000   1.0000   1.0000   1.0000   1.0000
     1.0000   1.0000   1.0000   1.0000   1.0000   1.0000   1.0000   1.0000
     1.0000   1.0000   1.0000   1.0000   1.0000   1.0000   1.0000   1.0000
     1.0000   1.0000   1.0000   1.0000   1.0000   1.0000   1.0000   1.0000
     1.0000   1.0000   1.0000   1.0000   1.0000   1.0000   1.0000   1.0000
     1.0000   1.0000   1.0000   1.0000   1.0000   1.0000   1.0000   1.0000
     1.0000   1.0000   1.0000   1.0000   1.0000   1.0000   1.0000   1.0000
     1.0000   1.0000   1.0000   1.0000   1.0000   1.0000   1.0000   1.0000
     1.0000   1.0000   1.0000   1.0000   1.0000   1.0000   1.0000   1.0000
     1.0000   1.0000   1.0000   1.0000   1.0000   1.0000   1.0000   1.0000
     1.0000   1.0000   1.0000   1.0000   1.0000   1.0000   1.0000   1.0000
     1.0000   1.0000   1.0000   1.0000   1.0000   1.0000   1.0000   1.0000
     1.0000   1.0000   1.0000   1.0000   1.0000   1.0000   1.0000   1.0000
     1.0000   1.0000   1.0000   1.0000   1.0000   1.0000   1.0000   1.0000
     1.0000   1.0000   1.0000   1.0000   1.0000   1.0000   1.0000   1.0000
     1.0000   1.0000   1.0000   1.0000   1.0000   1.0000   1.0000   1.0000
     1.0000   1.0000   1.0000   1.0000   1.0000   1.0000   1.0000   1.0000
     1.0000   1.0000   1.0000   1.0000   1.0000   1.0000   1.0000   1.0000
     1.0000   1.0000   1.0000   1.0000   1.0000   1.0000   1.0000   1.0000
     1.0000   1.0000   1.0000   1.0000   1.0000   1.0000   1.0000   1.0000
     1.0000   1.0000   1.0000   1.0000   1.0000   1.0000   1.0000   1.0000
     1.0000   1.0000   1.0000   1.0000   1.0000   1.0000   1.0000   1.0000
     1.0000   1.0000   1.0000   1.0000   1.0000   1.0000   1.0000   1.0000
     1.0000   1.0000   1.0000   1.0000   1.0000   1.0000   1.0000   1.0000
     1.0000   1.0000   1.0000   1.0000   1.0000   1.0000   1.0000   1.0000
     1.0000   1.0000   1.0000   1.0000   1.0000   1.0000   1.0000   1.0000
     1.0000   1.0000   1.0000   1.0000   1.0000   1.0000   1.0000   1.0000
     1.0000   1.0000   1.0000   1.0000   1.0000   1.0000   1.0000   1.0000
     1.0000   1.0000   1.0000   1.0000   1.0000   1.0000   1.0000   1.0000
     1.0000   1.0000   1.0000   1.0000   1.0000   1.0000   1.0000   1.0000
     1.0000   1.0000   1.0000   1.0000   1.0000   1.0000   1.0000   1.0000
     1.0000   1.0000   1.0000   1.0000   1.0000   1.0000   1.0000   1.0000
     1.0000   1.0000   1.0000   1.0000   1.0000   1.0000   1.0000   1.0000
     1.0000   1.0000   1.0000   1.0000   1.0000   1.0000   1.0000   1.0000
     1.0000   1.0000   1.0000   1.0000   1.0000   1.0000   1.0000   1.0000
     1.0000   1.0000   1.0000   1.0000   1.0000   1.0000   1.0000   1.0000
     1.0000   1.0000   1.0000   1.0000   1.0000   1.0000   1.0000   1.0000
     1.0000   1.0000   1.0000   1.0000   1.0000   1.0000   1.0000   1.0000
     1.0000   1.0000   1.0000   1.0000   1.0000   1.0000   1.0000   1.0000
     1.0000   1.0000   1.0000   1.0000   1.0000   1.0000   1.0000   1.0000
     1.0000   1.0000   1.0000   1.0000   1.0000   1.0000   1.0000   1.0000
     1.0000   1.0000   1.0000   1.0000   1.0000   1.0000   1.0000   1.0000
     1.0000   1.0000   1.0000   1.0000   1.0000   1.0000   1.0000   1.0000
     1.0000   1.0000   1.0000   1.0000   1.0000   1.0000   1.0000   1.0000
     1.0000   1.0000   1.0000   1.0000   1.0000   1.0000   1.0000   1.0000
     1.0000   1.0000   1.0000   1.0000   1.0000   1.0000   1.0000   1.0000
     1.0000   1.0000   1.0000   1.0000   1.0000   1.0000   1.0000   1.0000
     1.0000   1.0000   1.0000   1.0000   1.0000   1.0000   1.0000   1.0000
     1.0000   1.0000   1.0000   1.0000   1.0000   1.0000   1.0000   1.0000
     1.0000   1.0000   1.0000   1.0000   1.0000   1.0000   1.0000   1.0000
     1.0000   1.0000   1.0000   1.0000   1.0000   1.0000   1.0000   1.0000
     1.0000   1.0000   1.0000   1.0000   1.0000   1.0000   1.0000   1.0000
     1.0000   1.0000   1.0000   1.0000   1.0000   1.0000   1.0000   1.0000
     1.0000   1.0000   1.0000   1.0000   1.0000   1.0000   1.0000   1.0000
     1.0000   1.0000   1.0000   1.0000   1.0000   1.0000   1.0000   1.0000
     1.0000   1.0000   1.0000   1.0000   1.0000   1.0000   1.0000   1.0000
     1.0000   1.0000   1.0000   1.0000   1.0000   1.0000   1.0000   1.0000
     1.0000   1.0000   1.0000   1.0000   1.0000   1.0000   1.0000   1.0000
     1.0000   1.0000   1.0000   1.0000   1.0000   1.0000   1.0000   1.0000
     1.0000   1.0000   1.0000   1.0000   1.0000   1.0000   1.0000   1.0000
     1.0000   1.0000   1.0000   1.0000   1.0000   1.0000   1.0000   1.0000
     1.0000   1.0000   1.0000   1.0000   1.0000   1.0000   1.0000   1.0000
     1.0000   1.0000   1.0000   1.0000   1.0000   1.0000   1.0000   1.0000
     1.0000   1.0000   1.0000   1.0000   1.0000   1.0000   1.0000   1.0000
     1.0000   1.0000   1.0000   1.0000   1.0000   1.0000   1.0000   1.0000
     1.0000   1.0000   1.0000   1.0000   1.0000   1.0000   1.0000   1.0000
     1.0000   1.0000   1.0000   1.0000   1.0000   1.0000   1.0000   1.0000
     1.0000   1.0000   1.0000   1.0000   1.0000   1.0000   1.0000   1.0000
     1.0000   1.0000   1.0000   1.0000   1.0000   1.0000   1.0000   1.0000
     1.0000   1.0000   1.0000   1.0000   1.0000   1.0000   1.0000   1.0000
     1.0000   1.0000   1.0000   1.0000   1.0000   1.0000   1.0000   1.0000
     1.0000   1.0000   1.0000   1.0000   1.0000   1.0000   1.0000   1.0000
     1.0000   1.0000   1.0000   1.0000   1.0000   1.0000   1.0000   1.0000
     1.0000   1.0000   1.0000   1.0000   1.0000   1.0000   1.0000   1.0000
     1.0000   1.0000   1.0000   1.0000   1.0000   1.0000   1.0000   1.0000
     1.0000   1.0000   1.0000   1.0000   1.0000   1.0000   1.0000   1.0000
     1.0000   1.0000   1.0000   1.0000   1.0000   1.0000   1.0000   1.0000
     1.0000   1.0000   1.0000   1.0000   1.0000   1.0000   1.0000   1.0000
     1.0000   1.0000   1.0000   1.0000   1.0000   1.0000   1.0000   1.0000
     1.0000   1.0000   1.0000   1.0000   1.0000   1.0000   1.0000   1.0000
     1.0000   1.0000   1.0000   1.0000   1.0000   1.0000   1.0000   1.0000
     1.0000   1.0000   1.0000   1.0000   1.0000   1.0000   1.0000   1.0000
     1.0000   1.0000   1.0000   1.0000   1.0000   1.0000   1.0000   1.0000
     1.0000   1.0000   1.0000   1.0000   1.0000   1.0000   1.0000   1.0000
     1.0000   1.0000   1.0000   1.0000   1.0000   1.0000   1.0000   1.0000
     1.0000   1.0000   1.0000   1.0000   1.0000   1.0000   1.0000   1.0000
     1.0000   1.0000   1.0000   1.0000   1.0000   1.0000   1.0000   1.0000
     1.0000   1.0000   1.0000   1.0000   1.0000   1.0000   1.0000   1.0000
     1.0000   1.0000   1.0000   1.0000   1.0000   1.0000   1.0000   1.0000
     1.0000   1.0000   1.0000   1.0000   1.0000   1.0000   1.0000   1.0000
     1.0000   1.0000   1.0000   1.0000   1.0000   1.0000   1.0000   1.0000
     1.0000   1.0000   1.0000   1.0000   1.0000   1.0000   1.0000   1.0000
     1.0000   1.0000   1.0000   1.0000   1.0000   1.0000   1.0000   1.0000
     1.0000   1.0000   1.0000   1.0001   1.0001   1.0001   1.0001   1.0001
     1.0002   1.0003   1.0004   1.0006   1.0007   1.0008   1.0009   1.0010
     1.0013   1.0017   1.0019   1.0027   1.0037   1.0048   1.0050   1.0061
     1.0081   1.0089   1.0119   1.0126   1.0187   1.0190   1.0208   1.0219
     1.0309   1.0374   1.0430   1.0476   1.0482   1.0575   1.0614   1.0657
     1.0703   1.0734   1.0753   1.0803   1.0816   1.0824   1.0833   1.0813
     1.0801   1.0786   1.0584   1.0506   1.0369   1.0310   1.0095   0.9800
     0.9599   0.9367   0.8958   0.8745   0.8032   0.7856   0.7623   0.7181
     0.6928   0.6739   0.6091   0.5850   0.5061   0.4806   0.4437   0.4268
     0.3782   0.3208   0.2973   0.2913   0.2679   0.2462   0.2172   0.1795
     0.1591   0.1457   0.1262   0.1130   0.0985   0.0836   0.0812   0.0635
     0.0515   0.0438   0.0349   0.0289   0.0228   0.0168   0.0151   0.0122
     0.0118   0.0085   0.0070   0.0055   0.0045   0.0037   0.0027   0.0019
     0.0016   0.0011   0.0009   0.0006   0.0004   0.0004   0.0003   0.0002
     0.0002   0.0001   0.0001   0.0000   0.0000   0.0000   0.0000   0.0000
     0.0000   0.0000   0.0000   0.0000   0.0000   0.0000   0.0000   0.0000
     0.0000   0.0000   0.0000   0.0000   0.0000   0.0000   0.0000   0.0000
     0.0000   0.0000   0.0000   0.0000   0.0000   0.0000   0.0000   0.0000
     0.0000   0.0000   0.0000   0.0000   0.0000   0.0000   0.0000   0.0000
     0.0000   0.0000   0.0000   0.0000   0.0000   0.0000   0.0000   0.0000
     0.0000   0.0000   0.0000   0.0000   0.0000   0.0000   0.0000   0.0000
     0.0000   0.0000   0.0000   0.0000   0.0000   0.0000   0.0000   0.0000
     0.0000   0.0000   0.0000   0.0000   0.0000   0.0000   0.0000   0.0000
[...]
     atom   18 type  1   force =     0.00001271    0.00000789    0.00000495
     atom   19 type  1   force =     0.00000473    0.00000941   -0.00000924
     atom   20 type  1   force =    -0.00000653   -0.00000208   -0.00000983
     atom   21 type  1   force =    -0.00000167    0.00000275    0.00003610
     atom   22 type  1   force =    -0.00000461   -0.00001330   -0.00001787
     atom   23 type  1   force =     0.00000092   -0.00001009    0.00000443
     atom   24 type  1   force =     0.00000777   -0.00001291    0.00000407
     atom   25 type  1   force =    -0.00001559   -0.00000667   -0.00000358
     atom   26 type  1   force =     0.00000732    0.00000172    0.00001822
     atom   27 type  1   force =    -0.00000943    0.00000026    0.00003435
     atom   28 type  1   force =    -0.00001773    0.00000566   -0.00000825
     atom   29 type  1   force =     0.00000206    0.00000250    0.00003774
     atom   30 type  1   force =     0.00001290    0.00002153    0.00002621
     atom   31 type  1   force =     0.00000546    0.00000479   -0.00000062
     atom   32 type  1   force =    -0.00000230    0.00002390    0.00001157
     atom   33 type  1   force =     0.00001028    0.00001497    0.00003887
     atom   34 type  1   force =     0.00001615    0.00000945   -0.00000188
     atom   35 type  1   force =     0.00001199    0.00000940    0.00003224
     atom   36 type  1   force =    -0.00000817   -0.00001221    0.00004158
     atom   37 type  1   force =    -0.00000712   -0.00000353   -0.00000932
     atom   38 type  1   force =    -0.00000214   -0.00001860    0.00000216
     atom   39 type  1   force =    -0.00000059   -0.00000118    0.00004268
     atom   40 type  1   force =    -0.00000010   -0.00000685    0.00002221
     atom   41 type  1   force =     0.00001287   -0.00000067   -0.00001135
     atom   42 type  1   force =    -0.00001562   -0.00000880    0.00002890
     atom   43 type  1   force =    -0.00000077    0.00000281    0.00002158
     atom   44 type  1   force =     0.00000524   -0.00000199    0.00002080
     atom   45 type  1   force =    -0.00000315   -0.00000963    0.00000802
     atom   46 type  1   force =    -0.00000968   -0.00000661    0.00002011
     atom   47 type  1   force =     0.00000877   -0.00001497   -0.00001324
     atom   48 type  1   force =     0.00001247   -0.00000773    0.00001172
     atom   49 type  1   force =     0.00000365   -0.00001431    0.00000508
     atom   50 type  1   force =     0.00000755    0.00000571   -0.00000404
     atom   51 type  1   force =     0.00000211    0.00000637    0.00003904
     atom   52 type  1   force =    -0.00000190    0.00000059    0.00004669
     atom   53 type  1   force =     0.00000597    0.00001542   -0.00000140
     atom   54 type  1   force =    -0.00000460   -0.00000526    0.00003163
     atom   55 type  1   force =     0.00001003   -0.00000662    0.00000081
     atom   56 type  1   force =     0.00000199   -0.00001904    0.00003706
     atom   57 type  1   force =    -0.00001367   -0.00001906   -0.00000319
     atom   58 type  1   force =    -0.00001427   -0.00001412   -0.00000724
     atom   59 type  1   force =    -0.00000395   -0.00001354    0.00002177
     atom   60 type  1   force =    -0.00000542   -0.00001532    0.00000860
     atom   61 type  1   force =    -0.00000184   -0.00000026   -0.00001152
     atom   62 type  1   force =    -0.00000468   -0.00001539    0.00001735
     atom   63 type  1   force =    -0.00000516   -0.00000607    0.00000099
     atom   64 type  1   force =     0.00001360    0.00000399    0.00002478
     atom   65 type  1   force =     0.00001110    0.00000261   -0.00003117
     atom   66 type  1   force =    -0.00001611    0.00001658    0.00002266
     atom   67 type  1   force =     0.00000415    0.00000823   -0.00000552
     atom   68 type  1   force =    -0.00001842    0.00000441    0.00000212
     atom   69 type  1   force =     0.00001868   -0.00000131    0.00001951
     atom   70 type  1   force =     0.00002069   -0.00000325   -0.00000195
     atom   71 type  1   force =     0.00001423   -0.00000375   -0.00001572
     atom   72 type  1   force =     0.00000227   -0.00000161    0.00005009
     atom   73 type  1   force =    -0.00000947   -0.00003129   -0.00000585
     atom   74 type  1   force =    -0.00000352   -0.00000795   -0.00001129
     atom   75 type  1   force =    -0.00002685   -0.00000754    0.00000145
     atom   76 type  1   force =    -0.00000071    0.00000319    0.00000131
     atom   77 type  1   force =    -0.00000480   -0.00000368    0.00001302
     atom   78 type  1   force =     0.00000027    0.00000338    0.00002611
     atom   79 type  1   force =    -0.00000943   -0.00000028   -0.00000070
     atom   80 type  1   force =     0.00000768   -0.00001149    0.00002758
     atom   81 type  1   force =    -0.00000099    0.00001725   -0.00001519
     atom   82 type  1   force =     0.00000585   -0.00000461    0.00002750
     atom   83 type  1   force =    -0.00000009   -0.00000606   -0.00001230
     atom   84 type  1   force =     0.00001909   -0.00000729    0.00000976
     atom   85 type  1   force =    -0.00001284   -0.00000312   -0.00001241
     atom   86 type  1   force =    -0.00000851   -0.00001179    0.00001956
     atom   87 type  1   force =     0.00001426    0.00000575    0.00000433
     atom   88 type  1   force =    -0.00000664   -0.00000177    0.00002338
     atom   89 type  1   force =     0.00001130   -0.00001029    0.00000379
     atom   90 type  1   force =     0.00000053    0.00000724   -0.00001672
     atom   91 type  1   force =    -0.00000347   -0.00000925    0.00002664
     atom   92 type  1   force =    -0.00000649    0.00000181    0.00000733
     atom   93 type  1   force =     0.00000420   -0.00000734    0.00000347
     atom   94 type  1   force =    -0.00000021   -0.00002333    0.00003205
     atom   95 type  1   force =    -0.00000129   -0.00000380    0.00002798
     atom   96 type  1   force =     0.00001006   -0.00000031    0.00000961
     atom   97 type  1   force =    -0.00000270    0.00000549    0.00000138
     atom   98 type  1   force =    -0.00000150   -0.00000212    0.00004950
     atom   99 type  1   force =     0.00000152   -0.00000055   -0.00000091
     atom  100 type  1   force =     0.00001237    0.00000962    0.00002133
     atom  101 type  1   force =     0.00001176    0.00002147   -0.00000470
     atom  102 type  1   force =    -0.00000901   -0.00000281   -0.00000581
     atom  103 type  1   force =    -0.00000907    0.00001776   -0.00000141
     atom  104 type  1   force =    -0.00001222    0.00001316    0.00000992
     atom  105 type  1   force =     0.00000726    0.00001052   -0.00001190
     atom  106 type  1   force =     0.00000326    0.00001257    0.00001914
     atom  107 type  1   force =    -0.00001274    0.00000537   -0.00002187
     atom  108 type  1   force =    -0.00002635   -0.00000810    0.00001714
     atom  109 type  1   force =     0.00001839   -0.00000304   -0.00000662
     atom  110 type  1   force =     0.00000315    0.00000036    0.00001132
     atom  111 type  1   force =    -0.00000389    0.00000072    0.00002136
     atom  112 type  1   force =    -0.00000365   -0.00001178    0.00001394
     atom  113 type  1   force =     0.00000439    0.00001549   -0.00000222
     atom  114 type  1   force =     0.00000480   -0.00000555    0.00000371
     atom  115 type  1   force =     0.00000270    0.00000257    0.00003181
     atom  116 type  1   force =     0.00000511    0.00001465    0.00002185
     atom  117 type  1   force =    -0.00000492    0.00000647   -0.00001109
     atom  118 type  1   force =    -0.00000108    0.00000302    0.00001124
     atom  119 type  1   force =    -0.00000108   -0.00000331   -0.00002021
     atom  120 type  1   force =     0.00001063    0.00001023    0.00002046
     atom  121 type  1   force =     0.00001450   -0.00000433    0.00003394
     atom  122 type  1   force =    -0.00000442    0.00001222    0.00002507
     atom  123 type  1   force =     0.00000092    0.00001193   -0.00001087
     atom  124 type  1   force =    -0.00001425    0.00000910    0.00001931
     atom  125 type  1   force =    -0.00000685    0.00001147   -0.00001809
     atom  126 type  1   force =    -0.00000213   -0.00001728    0.00001067
     atom  127 type  1   force =    -0.00000470    0.00000128    0.00001416
     atom  128 type  1   force =    -0.00000051    0.00001064   -0.00001355
     atom  129 type  1   force =    -0.00000822    0.00000548    0.00002795
     atom  130 type  1   force =     0.00000447   -0.00000762    0.00001479
     atom  131 type  1   force =    -0.00001409   -0.00001957    0.00000617
     atom  132 type  1   force =     0.00000943    0.00000234    0.00001215
     atom  133 type  1   force =     0.00000255    0.00000393    0.00002476
     atom  134 type  1   force =     0.00001012   -0.00000904    0.00002130
     atom  135 type  1   force =     0.00001918   -0.00001008   -0.00002431
     atom  136 type  1   force =     0.00002032   -0.00001253    0.00001732
     atom  137 type  1   force =    -0.00000949    0.00001441    0.00002080
     atom  138 type  1   force =    -0.00000814    0.00001074    0.00002719
     atom  139 type  1   force =    -0.00000146    0.00000321   -0.00000061
     atom  140 type  1   force =     0.00001489    0.00000805    0.00000706
     atom  141 type  1   force =    -0.00000416    0.00001522   -0.00003165
     atom  142 type  1   force =    -0.00001037   -0.00001145    0.00001621
     atom  143 type  1   force =     0.00000746    0.00001617   -0.00000280
     atom  144 type  1   force =    -0.00002694    0.00000256    0.00000093
     atom  145 type  1   force =    -0.00001028    0.00002074    0.00000789
     atom  146 type  1   force =    -0.00001771   -0.00001262    0.00000212
     atom  147 type  1   force =    -0.00000352   -0.00000596    0.00001319
     atom  148 type  1   force =    -0.00000656   -0.00000601   -0.00000753
     atom  149 type  1   force =    -0.00000421   -0.00000514    0.00000520
     atom  150 type  1   force =    -0.00000418   -0.00001346    0.00001597
     atom  151 type  1   force =     0.00000489   -0.00000081   -0.00000236
     atom  152 type  1   force =    -0.00000139   -0.00000172    0.00003190
     atom  153 type  1   force =     0.00002025   -0.00000367   -0.00000104
     atom  154 type  1   force =     0.00000849    0.00000675    0.00000987
     atom  155 type  1   force =    -0.00000744   -0.00000081    0.00000184
     atom  156 type  1   force =     0.00000794    0.00000172    0.00003012
     atom  157 type  1   force =    -0.00000655    0.00000630    0.00001968
     atom  158 type  1   force =     0.00000643    0.00000316    0.00000152
     atom  159 type  1   force =     0.00000791    0.00000252    0.00001327
     atom  160 type  1   force =     0.00002224    0.00001253    0.00001047
     atom  161 type  1   force =    -0.00000638    0.00000164    0.00001965
     atom  162 type  1   force =     0.00000852   -0.00000865    0.00001630
     atom  163 type  1   force =    -0.00000139   -0.00000567   -0.00001007
     atom  164 type  1   force =     0.00000562    0.00000242   -0.00001087
     atom  165 type  1   force =     0.00000186    0.00000014    0.00002648
     atom  166 type  1   force =    -0.00002164   -0.00000457    0.00000407
     atom  167 type  1   force =    -0.00001523    0.00000052    0.00001701
     atom  168 type  1   force =    -0.00000911    0.00002450    0.00000298
     atom  169 type  1   force =    -0.00000548    0.00001347    0.00002375
     atom  170 type  1   force =     0.00000305    0.00002603    0.00001017
     atom  171 type  1   force =    -0.00001146    0.00001462    0.00001034
     atom  172 type  1   force =     0.00000974    0.00000936    0.00001215
     atom  173 type  1   force =     0.00000300    0.00000977    0.00001548
     atom  174 type  1   force =     0.00002582    0.00000561    0.00002106
     atom  175 type  1   force =    -0.00001103   -0.00000255    0.00002783
     atom  176 type  1   force =    -0.00000372   -0.00000608   -0.00000034
     atom  177 type  1   force =     0.00002073    0.00000151    0.00002702
     atom  178 type  1   force =     0.00002179    0.00001094    0.00000961
     atom  179 type  1   force =     0.00001667    0.00000144   -0.00000295
     atom  180 type  1   force =     0.00001993   -0.00000154   -0.00000747
     atom  181 type  1   force =     0.00000469    0.00000190    0.00002241
     atom  182 type  1   force =    -0.00000353   -0.00001098   -0.00001430
     atom  183 type  1   force =    -0.00000393   -0.00002389    0.00000905
     atom  184 type  1   force =     0.00001602   -0.00001744    0.00004025
     atom  185 type  1   force =     0.00000532   -0.00000153   -0.00000161
     atom  186 type  1   force =    -0.00000320   -0.00000782    0.00000657
     atom  187 type  1   force =    -0.00001123    0.00001117    0.00001604
     atom  188 type  1   force =    -0.00001173   -0.00001946   -0.00000209
     atom  189 type  1   force =    -0.00000483    0.00000134    0.00002377
     atom  190 type  1   force =    -0.00000894    0.00001617   -0.00001253
     atom  191 type  1   force =    -0.00000893    0.00000767    0.00001805
     atom  192 type  1   force =     0.00000015   -0.00000590    0.00002660
     atom  193 type  1   force =     0.00000066    0.00000892    0.00001987
     atom  194 type  1   force =    -0.00000223    0.00000565    0.00002689
     atom  195 type  1   force =    -0.00001236   -0.00001008   -0.00000295
     atom  196 type  1   force =     0.00001453    0.00000846    0.00001808
     atom  197 type  1   force =     0.00000625    0.00001118   -0.00000351
     atom  198 type  1   force =     0.00000409    0.00000510    0.00003439
     atom  199 type  1   force =     0.00001497    0.00000065   -0.00000137
     atom  200 type  1   force =     0.00000798   -0.00000775    0.00003877

     Total force =     0.393426     Total SCF correction =     0.000348


     Computing stress (Cartesian axis) and pressure


     negative rho (up, down):  4.012E-02 0.000E+00
          total   stress  (Ry/bohr**3)                   (kbar)     P=   -1.96
  -0.00001611   0.00000026  -0.00000025         -2.37      0.04     -0.04
   0.00000026  -0.00001628  -0.00000031          0.04     -2.39     -0.05
  -0.00000025  -0.00000031  -0.00000767         -0.04     -0.05     -1.13

     kinetic stress (kbar)    482.44     -0.13     -0.12
                               -0.13    482.36     -0.04
                               -0.12     -0.04    488.17

     local   stress (kbar) -52320.54   -911.01     31.61
                             -911.01 -50834.55    240.89
                               31.61    240.89  48551.68

     nonloc. stress (kbar)    598.18      0.18     -0.14
                                0.18    598.03     -0.01
                               -0.14     -0.01    593.47

     hartree stress (kbar)  26601.86    445.25    -16.71
                              445.25  25864.00   -117.96
                              -16.71   -117.96 -23286.01

     exc-cor stress (kbar)    768.32      0.01     -0.00
                                0.01    768.32     -0.00
                               -0.00     -0.00    767.77

     corecor stress (kbar)  -1148.38     -0.01      0.00
                               -0.01  -1148.38      0.00
                                0.00      0.00  -1148.18

     ewald   stress (kbar)  25015.75    465.75    -14.68
                              465.75  24267.82   -122.92
                              -14.68   -122.92 -25968.03

     hubbard stress (kbar)      0.00      0.00      0.00
                                0.00      0.00      0.00
                                0.00      0.00      0.00

     london  stress (kbar)      0.00      0.00      0.00
                                0.00      0.00      0.00
                                0.00      0.00      0.00

     DFT-D3  stress (kbar)      0.00      0.00      0.00
                                0.00      0.00      0.00
                                0.00      0.00      0.00

     XDM     stress (kbar)      0.00      0.00      0.00
                                0.00      0.00      0.00
                                0.00      0.00      0.00

     dft-nl  stress (kbar)      0.00      0.00      0.00
                                0.00      0.00      0.00
                                0.00      0.00      0.00

     TS-vdW  stress (kbar)      0.00      0.00      0.00
                                0.00      0.00      0.00
                                0.00      0.00      0.00



     Writing output data file scf.save/
 
     init_run     :    102.17s CPU    107.19s WALL (       1 calls)
     electrons    :  13427.94s CPU  13671.27s WALL (       1 calls)
     forces       :     16.15s CPU     16.82s WALL (       1 calls)
     stress       :    278.39s CPU    280.21s WALL (       1 calls)

     Called by init_run:
     wfcinit      :     63.92s CPU     65.10s WALL (       1 calls)
     wfcinit:atom :      0.04s CPU      0.10s WALL (       1 calls)
     wfcinit:wfcr :     63.78s CPU     64.82s WALL (       1 calls)
     potinit      :      1.37s CPU      1.42s WALL (       1 calls)
     hinit0       :      6.00s CPU      9.36s WALL (       1 calls)

     Called by electrons:
     c_bands      :   8962.55s CPU   9120.69s WALL (      30 calls)
     sum_band     :    905.58s CPU    925.55s WALL (      30 calls)
     v_of_rho     :     27.05s CPU     27.67s WALL (      31 calls)
     v_h          :      3.90s CPU      3.97s WALL (      31 calls)
     v_xc         :     24.54s CPU     25.11s WALL (      33 calls)
     newd         :     35.61s CPU     40.51s WALL (      31 calls)
     mix_rho      :   3491.57s CPU   3549.59s WALL (      30 calls)

     Called by c_bands:
     init_us_2    :      5.64s CPU      5.73s WALL (      61 calls)
     regterg      :   8915.34s CPU   9072.65s WALL (      47 calls)

     Called by sum_band:
     sum_band:bec :      0.72s CPU      0.73s WALL (      30 calls)
     addusdens    :     25.00s CPU     29.57s WALL (      30 calls)

     Called by *egterg:
     h_psi        :   6050.27s CPU   6150.04s WALL (     718 calls)
     s_psi        :    267.61s CPU    270.10s WALL (     718 calls)
     g_psi        :      2.14s CPU      2.15s WALL (     670 calls)
     rdiaghg      :   1378.32s CPU   1397.89s WALL (     717 calls)
     regterg:over :    469.07s CPU    478.29s WALL (     670 calls)
     regterg:upda :    477.16s CPU    481.53s WALL (     670 calls)
     regterg:last :    176.15s CPU    177.28s WALL (      48 calls)
     rdiaghg:chol :     37.75s CPU     38.54s WALL (     717 calls)
     rdiaghg:inve :     37.77s CPU     38.32s WALL (     717 calls)
     rdiaghg:para :    100.71s CPU    105.52s WALL (    1434 calls)

     Called by h_psi:
     h_psi:pot    :   6045.42s CPU   6145.17s WALL (     718 calls)
     h_psi:calbec :    299.19s CPU    303.83s WALL (     718 calls)
     vloc_psi     :   5475.91s CPU   5568.75s WALL (     718 calls)
     add_vuspsi   :    270.31s CPU    272.58s WALL (     718 calls)

     General routines
     calbec       :    381.79s CPU    387.86s WALL (     753 calls)
     fft          :     55.94s CPU     60.36s WALL (     359 calls)
     ffts         :   3178.47s CPU   3233.38s WALL (   70138 calls)
     fftw         :   5957.54s CPU   6061.96s WALL (  210502 calls)
     interpolate  :      4.62s CPU      4.70s WALL (      31 calls)
 
     Parallel routines
     fft_scatt_xy :    201.93s CPU    203.55s WALL (  280999 calls)
     fft_scatt_yz :   8373.58s CPU   8531.26s WALL (  280999 calls)
 
     PWSCF        :      3h51m CPU      3h56m WALL

 
   This run was terminated on:   1: 9: 3   1Dec2019            

=------------------------------------------------------------------------------=
   JOB DONE.
=------------------------------------------------------------------------------=
