
     Program Q2R v.6.3 starts on 12Nov2020 at 13:44:13 

     This program is part of the open-source Quantum ESPRESSO suite
     for quantum simulation of materials; please cite
         "P. Giannozzi et al., J. Phys.:Condens. Matter 21 395502 (2009);
         "P. Giannozzi et al., J. Phys.:Condens. Matter 29 465901 (2017);
          URL http://www.quantum-espresso.org", 
     in publications or presentations arising from this work. More details at
     http://www.quantum-espresso.org/quote

     Parallel version (MPI), running on     1 processors

     MPI processes distributed on     1 nodes

     reading grid info from file /n/kozinsky_lab/Users/xiey/Stanene/beta-0/ph/beta.dyn0    
  reading force constants from file 
 /n/kozinsky_lab/Users/xiey/Stanene/beta-0/ph/beta.dyn1
  Dielectric Tensor not found
  nqs=            1
 q=   0.00000000  0.00000000  0.00000000
  reading force constants from file 
 /n/kozinsky_lab/Users/xiey/Stanene/beta-0/ph/beta.dyn2
  nqs=            4
 q=   0.09461904  0.09461904  0.00000000
 q=   0.09461904 -0.09461904  0.00000000
 q=  -0.09461904  0.09461904  0.00000000
 q=  -0.09461904 -0.09461904  0.00000000
  reading force constants from file 
 /n/kozinsky_lab/Users/xiey/Stanene/beta-0/ph/beta.dyn3
  nqs=            4
 q=   0.18923809  0.18923809  0.00000000
 q=   0.18923809 -0.18923809  0.00000000
 q=  -0.18923809  0.18923809  0.00000000
 q=  -0.18923809 -0.18923809  0.00000000
  reading force constants from file 
 /n/kozinsky_lab/Users/xiey/Stanene/beta-0/ph/beta.dyn4
  nqs=            4
 q=   0.28385713  0.28385713  0.00000000
 q=   0.28385713 -0.28385713  0.00000000
 q=  -0.28385713  0.28385713  0.00000000
 q=  -0.28385713 -0.28385713  0.00000000
  reading force constants from file 
 /n/kozinsky_lab/Users/xiey/Stanene/beta-0/ph/beta.dyn5
  nqs=            2
 q=  -0.37847618 -0.37847618  0.00000000
 q=   0.37847618 -0.37847618  0.00000000
  reading force constants from file 
 /n/kozinsky_lab/Users/xiey/Stanene/beta-0/ph/beta.dyn6
  nqs=            8
 q=   0.09461904  0.00000000  0.17512815
 q=   0.00000000  0.09461904  0.17512815
 q=   0.00000000  0.09461904 -0.17512815
 q=   0.00000000 -0.09461904  0.17512815
 q=  -0.09461904  0.00000000  0.17512815
 q=   0.00000000 -0.09461904 -0.17512815
 q=  -0.09461904  0.00000000 -0.17512815
 q=   0.09461904  0.00000000 -0.17512815
  reading force constants from file 
 /n/kozinsky_lab/Users/xiey/Stanene/beta-0/ph/beta.dyn7
  nqs=           16
 q=   0.18923809  0.09461904  0.17512815
 q=   0.18923809 -0.09461904  0.17512815
 q=   0.09461904  0.18923809  0.17512815
 q=   0.09461904  0.18923809 -0.17512815
 q=  -0.09461904 -0.18923809  0.17512815
 q=  -0.18923809 -0.09461904  0.17512815
 q=  -0.09461904 -0.18923809 -0.17512815
 q=  -0.18923809 -0.09461904 -0.17512815
 q=  -0.18923809  0.09461904  0.17512815
 q=  -0.18923809  0.09461904 -0.17512815
 q=   0.09461904 -0.18923809  0.17512815
 q=   0.18923809 -0.09461904 -0.17512815
 q=  -0.09461904  0.18923809  0.17512815
 q=  -0.09461904  0.18923809 -0.17512815
 q=   0.18923809  0.09461904 -0.17512815
 q=   0.09461904 -0.18923809 -0.17512815
  reading force constants from file 
 /n/kozinsky_lab/Users/xiey/Stanene/beta-0/ph/beta.dyn8
  nqs=           16
 q=   0.28385713  0.18923809  0.17512815
 q=   0.28385713 -0.18923809  0.17512815
 q=   0.18923809  0.28385713  0.17512815
 q=   0.18923809  0.28385713 -0.17512815
 q=  -0.18923809 -0.28385713  0.17512815
 q=  -0.28385713 -0.18923809  0.17512815
 q=  -0.18923809 -0.28385713 -0.17512815
 q=  -0.28385713 -0.18923809 -0.17512815
 q=  -0.28385713  0.18923809  0.17512815
 q=  -0.28385713  0.18923809 -0.17512815
 q=   0.18923809 -0.28385713  0.17512815
 q=   0.28385713 -0.18923809 -0.17512815
 q=  -0.18923809  0.28385713  0.17512815
 q=  -0.18923809  0.28385713 -0.17512815
 q=   0.28385713  0.18923809 -0.17512815
 q=   0.18923809 -0.28385713 -0.17512815
  reading force constants from file 
 /n/kozinsky_lab/Users/xiey/Stanene/beta-0/ph/beta.dyn9
  nqs=           16
 q=   0.37847618  0.28385713  0.17512815
 q=   0.37847618 -0.28385713  0.17512815
 q=   0.28385713  0.37847618  0.17512815
 q=   0.28385713  0.37847618 -0.17512815
 q=  -0.28385713 -0.37847618  0.17512815
 q=  -0.37847618 -0.28385713  0.17512815
 q=  -0.28385713 -0.37847618 -0.17512815
 q=  -0.37847618 -0.28385713 -0.17512815
 q=  -0.37847618  0.28385713  0.17512815
 q=  -0.37847618  0.28385713 -0.17512815
 q=   0.28385713 -0.37847618  0.17512815
 q=   0.37847618 -0.28385713 -0.17512815
 q=  -0.28385713  0.37847618  0.17512815
 q=  -0.28385713  0.37847618 -0.17512815
 q=   0.37847618  0.28385713 -0.17512815
 q=   0.28385713 -0.37847618 -0.17512815
  reading force constants from file 
 /n/kozinsky_lab/Users/xiey/Stanene/beta-0/ph/beta.dyn10
  nqs=            8
 q=   0.18923809  0.00000000  0.35025630
 q=   0.00000000  0.18923809  0.35025630
 q=   0.00000000  0.18923809 -0.35025630
 q=   0.00000000 -0.18923809  0.35025630
 q=  -0.18923809  0.00000000  0.35025630
 q=   0.00000000 -0.18923809 -0.35025630
 q=  -0.18923809  0.00000000 -0.35025630
 q=   0.18923809  0.00000000 -0.35025630
  reading force constants from file 
 /n/kozinsky_lab/Users/xiey/Stanene/beta-0/ph/beta.dyn11
  nqs=           16
 q=   0.28385713  0.09461904  0.35025630
 q=   0.28385713 -0.09461904  0.35025630
 q=   0.09461904  0.28385713  0.35025630
 q=   0.09461904  0.28385713 -0.35025630
 q=  -0.09461904 -0.28385713  0.35025630
 q=  -0.28385713 -0.09461904  0.35025630
 q=  -0.09461904 -0.28385713 -0.35025630
 q=  -0.28385713 -0.09461904 -0.35025630
 q=  -0.28385713  0.09461904  0.35025630
 q=  -0.28385713  0.09461904 -0.35025630
 q=   0.09461904 -0.28385713  0.35025630
 q=   0.28385713 -0.09461904 -0.35025630
 q=  -0.09461904  0.28385713  0.35025630
 q=  -0.09461904  0.28385713 -0.35025630
 q=   0.28385713  0.09461904 -0.35025630
 q=   0.09461904 -0.28385713 -0.35025630
  reading force constants from file 
 /n/kozinsky_lab/Users/xiey/Stanene/beta-0/ph/beta.dyn12
  nqs=           16
 q=   0.37847618  0.18923809  0.35025630
 q=   0.37847618 -0.18923809  0.35025630
 q=   0.18923809  0.37847618  0.35025630
 q=   0.18923809  0.37847618 -0.35025630
 q=  -0.18923809 -0.37847618  0.35025630
 q=  -0.37847618 -0.18923809  0.35025630
 q=  -0.18923809 -0.37847618 -0.35025630
 q=  -0.37847618 -0.18923809 -0.35025630
 q=  -0.37847618  0.18923809  0.35025630
 q=  -0.37847618  0.18923809 -0.35025630
 q=   0.18923809 -0.37847618  0.35025630
 q=   0.37847618 -0.18923809 -0.35025630
 q=  -0.18923809  0.37847618  0.35025630
 q=  -0.18923809  0.37847618 -0.35025630
 q=   0.37847618  0.18923809 -0.35025630
 q=   0.18923809 -0.37847618 -0.35025630
  reading force constants from file 
 /n/kozinsky_lab/Users/xiey/Stanene/beta-0/ph/beta.dyn13
  nqs=            8
 q=   0.47309522  0.28385713  0.35025630
 q=   0.28385713  0.47309522  0.35025630
 q=   0.28385713  0.47309522 -0.35025630
 q=   0.47309522 -0.28385713  0.35025630
 q=  -0.28385713 -0.47309522 -0.35025630
 q=  -0.47309522  0.28385713  0.35025630
 q=  -0.47309522  0.28385713 -0.35025630
 q=   0.47309522 -0.28385713 -0.35025630
  reading force constants from file 
 /n/kozinsky_lab/Users/xiey/Stanene/beta-0/ph/beta.dyn14
  nqs=            8
 q=   0.09461904 -0.09461904  0.35025630
 q=  -0.09461904  0.09461904  0.35025630
 q=  -0.09461904  0.09461904 -0.35025630
 q=   0.09461904  0.09461904  0.35025630
 q=   0.09461904 -0.09461904 -0.35025630
 q=  -0.09461904 -0.09461904  0.35025630
 q=  -0.09461904 -0.09461904 -0.35025630
 q=   0.09461904  0.09461904 -0.35025630
  reading force constants from file 
 /n/kozinsky_lab/Users/xiey/Stanene/beta-0/ph/beta.dyn15
  nqs=            8
 q=   0.28385713  0.00000000  0.52538445
 q=   0.00000000  0.28385713  0.52538445
 q=   0.00000000  0.28385713 -0.52538445
 q=   0.00000000 -0.28385713  0.52538445
 q=  -0.28385713  0.00000000  0.52538445
 q=   0.00000000 -0.28385713 -0.52538445
 q=  -0.28385713  0.00000000 -0.52538445
 q=   0.28385713  0.00000000 -0.52538445
  reading force constants from file 
 /n/kozinsky_lab/Users/xiey/Stanene/beta-0/ph/beta.dyn16
  nqs=           16
 q=   0.37847618  0.09461904  0.52538445
 q=   0.37847618 -0.09461904  0.52538445
 q=   0.09461904  0.37847618  0.52538445
 q=   0.09461904  0.37847618 -0.52538445
 q=  -0.09461904 -0.37847618  0.52538445
 q=  -0.37847618 -0.09461904  0.52538445
 q=  -0.09461904 -0.37847618 -0.52538445
 q=  -0.37847618 -0.09461904 -0.52538445
 q=  -0.37847618  0.09461904  0.52538445
 q=  -0.37847618  0.09461904 -0.52538445
 q=   0.09461904 -0.37847618  0.52538445
 q=   0.37847618 -0.09461904 -0.52538445
 q=  -0.09461904  0.37847618  0.52538445
 q=  -0.09461904  0.37847618 -0.52538445
 q=   0.37847618  0.09461904 -0.52538445
 q=   0.09461904 -0.37847618 -0.52538445
  reading force constants from file 
 /n/kozinsky_lab/Users/xiey/Stanene/beta-0/ph/beta.dyn17
  nqs=           16
 q=   0.47309522  0.18923809  0.52538445
 q=   0.47309522 -0.18923809  0.52538445
 q=   0.18923809  0.47309522  0.52538445
 q=   0.18923809  0.47309522 -0.52538445
 q=  -0.18923809 -0.47309522  0.52538445
 q=  -0.47309522 -0.18923809  0.52538445
 q=  -0.18923809 -0.47309522 -0.52538445
 q=  -0.47309522 -0.18923809 -0.52538445
 q=  -0.47309522  0.18923809  0.52538445
 q=  -0.47309522  0.18923809 -0.52538445
 q=   0.18923809 -0.47309522  0.52538445
 q=   0.47309522 -0.18923809 -0.52538445
 q=  -0.18923809  0.47309522  0.52538445
 q=  -0.18923809  0.47309522 -0.52538445
 q=   0.47309522  0.18923809 -0.52538445
 q=   0.18923809 -0.47309522 -0.52538445
  reading force constants from file 
 /n/kozinsky_lab/Users/xiey/Stanene/beta-0/ph/beta.dyn18
  nqs=           16
 q=   0.09461904 -0.18923809  0.52538445
 q=   0.09461904  0.18923809  0.52538445
 q=  -0.18923809  0.09461904  0.52538445
 q=  -0.18923809  0.09461904 -0.52538445
 q=   0.18923809 -0.09461904  0.52538445
 q=  -0.09461904  0.18923809  0.52538445
 q=   0.18923809 -0.09461904 -0.52538445
 q=  -0.09461904  0.18923809 -0.52538445
 q=  -0.09461904 -0.18923809  0.52538445
 q=  -0.09461904 -0.18923809 -0.52538445
 q=  -0.18923809 -0.09461904  0.52538445
 q=   0.09461904  0.18923809 -0.52538445
 q=   0.18923809  0.09461904  0.52538445
 q=   0.18923809  0.09461904 -0.52538445
 q=   0.09461904 -0.18923809 -0.52538445
 q=  -0.18923809 -0.09461904 -0.52538445
  reading force constants from file 
 /n/kozinsky_lab/Users/xiey/Stanene/beta-0/ph/beta.dyn19
  nqs=            4
 q=  -0.37847618  0.00000000 -0.70051261
 q=   0.00000000  0.37847618 -0.70051261
 q=   0.37847618  0.00000000 -0.70051261
 q=   0.00000000  0.37847618  0.70051261
  reading force constants from file 
 /n/kozinsky_lab/Users/xiey/Stanene/beta-0/ph/beta.dyn20
  nqs=           16
 q=  -0.28385713  0.09461904 -0.70051261
 q=  -0.28385713 -0.09461904 -0.70051261
 q=   0.28385713 -0.09461904  0.70051261
 q=   0.28385713  0.09461904  0.70051261
 q=  -0.09461904  0.28385713 -0.70051261
 q=   0.28385713 -0.09461904 -0.70051261
 q=  -0.09461904  0.28385713  0.70051261
 q=   0.09461904 -0.28385713 -0.70051261
 q=   0.28385713  0.09461904 -0.70051261
 q=   0.09461904 -0.28385713  0.70051261
 q=   0.09461904  0.28385713 -0.70051261
 q=  -0.28385713 -0.09461904  0.70051261
 q=  -0.09461904 -0.28385713 -0.70051261
 q=  -0.09461904 -0.28385713  0.70051261
 q=  -0.28385713  0.09461904  0.70051261
 q=   0.09461904  0.28385713  0.70051261
  reading force constants from file 
 /n/kozinsky_lab/Users/xiey/Stanene/beta-0/ph/beta.dyn21
  nqs=            8
 q=  -0.18923809  0.18923809 -0.70051261
 q=   0.18923809 -0.18923809  0.70051261
 q=   0.18923809  0.18923809  0.70051261
 q=  -0.18923809 -0.18923809 -0.70051261
 q=   0.18923809 -0.18923809 -0.70051261
 q=  -0.18923809  0.18923809  0.70051261
 q=   0.18923809  0.18923809 -0.70051261
 q=  -0.18923809 -0.18923809  0.70051261
  reading force constants from file 
 /n/kozinsky_lab/Users/xiey/Stanene/beta-0/ph/beta.dyn22
  nqs=            8
 q=   0.18923809  0.18923809  0.35025630
 q=  -0.18923809 -0.18923809 -0.35025630
 q=  -0.18923809  0.18923809 -0.35025630
 q=   0.18923809 -0.18923809  0.35025630
 q=  -0.18923809 -0.18923809  0.35025630
 q=  -0.18923809  0.18923809  0.35025630
 q=   0.18923809  0.18923809 -0.35025630
 q=   0.18923809 -0.18923809 -0.35025630
  reading force constants from file 
 /n/kozinsky_lab/Users/xiey/Stanene/beta-0/ph/beta.dyn23
  nqs=            8
 q=   0.28385713  0.28385713  0.35025630
 q=  -0.28385713 -0.28385713 -0.35025630
 q=  -0.28385713  0.28385713 -0.35025630
 q=   0.28385713 -0.28385713  0.35025630
 q=  -0.28385713 -0.28385713  0.35025630
 q=  -0.28385713  0.28385713  0.35025630
 q=   0.28385713  0.28385713 -0.35025630
 q=   0.28385713 -0.28385713 -0.35025630
  reading force constants from file 
 /n/kozinsky_lab/Users/xiey/Stanene/beta-0/ph/beta.dyn24
  nqs=            4
 q=   0.37847618  0.37847618  0.35025630
 q=   0.37847618 -0.37847618  0.35025630
 q=  -0.37847618 -0.37847618 -0.35025630
 q=  -0.37847618  0.37847618 -0.35025630
  reading force constants from file 
 /n/kozinsky_lab/Users/xiey/Stanene/beta-0/ph/beta.dyn25
  nqs=            2
 q=   0.00000000  0.00000000  0.35025630
 q=   0.00000000  0.00000000 -0.35025630
  reading force constants from file 
 /n/kozinsky_lab/Users/xiey/Stanene/beta-0/ph/beta.dyn26
  nqs=           16
 q=   0.28385713  0.18923809  0.52538445
 q=   0.18923809  0.28385713  0.52538445
 q=  -0.28385713 -0.18923809  0.52538445
 q=  -0.18923809 -0.28385713  0.52538445
 q=   0.28385713 -0.18923809  0.52538445
 q=  -0.28385713  0.18923809  0.52538445
 q=   0.18923809 -0.28385713  0.52538445
 q=  -0.18923809  0.28385713  0.52538445
 q=  -0.28385713 -0.18923809 -0.52538445
 q=   0.18923809  0.28385713 -0.52538445
 q=  -0.18923809 -0.28385713 -0.52538445
 q=   0.28385713 -0.18923809 -0.52538445
 q=  -0.28385713  0.18923809 -0.52538445
 q=  -0.18923809  0.28385713 -0.52538445
 q=   0.28385713  0.18923809 -0.52538445
 q=   0.18923809 -0.28385713 -0.52538445
  reading force constants from file 
 /n/kozinsky_lab/Users/xiey/Stanene/beta-0/ph/beta.dyn27
  nqs=           16
 q=   0.37847618  0.28385713  0.52538445
 q=   0.28385713  0.37847618  0.52538445
 q=  -0.37847618 -0.28385713  0.52538445
 q=  -0.28385713 -0.37847618  0.52538445
 q=   0.37847618 -0.28385713  0.52538445
 q=  -0.37847618  0.28385713  0.52538445
 q=   0.28385713 -0.37847618  0.52538445
 q=  -0.28385713  0.37847618  0.52538445
 q=  -0.37847618 -0.28385713 -0.52538445
 q=   0.28385713  0.37847618 -0.52538445
 q=  -0.28385713 -0.37847618 -0.52538445
 q=   0.37847618 -0.28385713 -0.52538445
 q=  -0.37847618  0.28385713 -0.52538445
 q=  -0.28385713  0.37847618 -0.52538445
 q=   0.37847618  0.28385713 -0.52538445
 q=   0.28385713 -0.37847618 -0.52538445
  reading force constants from file 
 /n/kozinsky_lab/Users/xiey/Stanene/beta-0/ph/beta.dyn28
  nqs=            8
 q=   0.00000000 -0.09461904  0.52538445
 q=   0.00000000  0.09461904  0.52538445
 q=   0.09461904  0.00000000  0.52538445
 q=  -0.09461904  0.00000000  0.52538445
 q=   0.00000000  0.09461904 -0.52538445
 q=  -0.09461904  0.00000000 -0.52538445
 q=   0.09461904  0.00000000 -0.52538445
 q=   0.00000000 -0.09461904 -0.52538445
  reading force constants from file 
 /n/kozinsky_lab/Users/xiey/Stanene/beta-0/ph/beta.dyn29
  nqs=            8
 q=   0.37847618  0.18923809  0.70051261
 q=  -0.37847618 -0.18923809  0.70051261
 q=  -0.18923809 -0.37847618  0.70051261
 q=   0.37847618 -0.18923809  0.70051261
 q=   0.18923809  0.37847618  0.70051261
 q=   0.18923809 -0.37847618  0.70051261
 q=  -0.18923809  0.37847618  0.70051261
 q=  -0.37847618  0.18923809  0.70051261
  reading force constants from file 
 /n/kozinsky_lab/Users/xiey/Stanene/beta-0/ph/beta.dyn30
  nqs=            8
 q=   0.47309522  0.28385713  0.70051261
 q=  -0.47309522 -0.28385713  0.70051261
 q=  -0.47309522  0.28385713 -0.70051261
 q=   0.47309522 -0.28385713  0.70051261
 q=   0.28385713 -0.47309522  0.70051261
 q=  -0.47309522 -0.28385713 -0.70051261
 q=  -0.28385713 -0.47309522 -0.70051261
 q=   0.47309522 -0.28385713 -0.70051261
  reading force constants from file 
 /n/kozinsky_lab/Users/xiey/Stanene/beta-0/ph/beta.dyn31
  nqs=            8
 q=   0.00000000 -0.18923809  0.70051261
 q=   0.00000000  0.18923809  0.70051261
 q=   0.00000000 -0.18923809 -0.70051261
 q=  -0.18923809  0.00000000  0.70051261
 q=   0.18923809  0.00000000  0.70051261
 q=   0.00000000  0.18923809 -0.70051261
 q=  -0.18923809  0.00000000 -0.70051261
 q=   0.18923809  0.00000000 -0.70051261
  reading force constants from file 
 /n/kozinsky_lab/Users/xiey/Stanene/beta-0/ph/beta.dyn32
  nqs=            8
 q=   0.09461904 -0.09461904  0.70051261
 q=  -0.09461904  0.09461904  0.70051261
 q=  -0.09461904 -0.09461904 -0.70051261
 q=   0.09461904  0.09461904  0.70051261
 q=  -0.09461904 -0.09461904  0.70051261
 q=  -0.09461904  0.09461904 -0.70051261
 q=   0.09461904 -0.09461904 -0.70051261
 q=   0.09461904  0.09461904 -0.70051261
  reading force constants from file 
 /n/kozinsky_lab/Users/xiey/Stanene/beta-0/ph/beta.dyn33
  nqs=            8
 q=  -0.75695235 -0.28385713 -0.52538445
 q=   0.75695235  0.28385713 -0.52538445
 q=   0.75695235 -0.28385713  0.52538445
 q=  -0.28385713 -0.75695235 -0.52538445
 q=   0.28385713 -0.75695235 -0.52538445
 q=   0.75695235  0.28385713  0.52538445
 q=  -0.28385713 -0.75695235  0.52538445
 q=   0.28385713  0.75695235  0.52538445
  reading force constants from file 
 /n/kozinsky_lab/Users/xiey/Stanene/beta-0/ph/beta.dyn34
  nqs=           16
 q=  -0.66233331 -0.18923809 -0.52538445
 q=   0.66233331 -0.18923809 -0.52538445
 q=   0.66233331  0.18923809 -0.52538445
 q=   0.66233331 -0.18923809  0.52538445
 q=  -0.66233331  0.18923809 -0.52538445
 q=  -0.18923809 -0.66233331 -0.52538445
 q=  -0.18923809  0.66233331 -0.52538445
 q=   0.18923809 -0.66233331 -0.52538445
 q=   0.66233331  0.18923809  0.52538445
 q=  -0.18923809 -0.66233331  0.52538445
 q=   0.18923809  0.66233331  0.52538445
 q=  -0.66233331  0.18923809  0.52538445
 q=   0.18923809  0.66233331 -0.52538445
 q=   0.18923809 -0.66233331  0.52538445
 q=  -0.66233331 -0.18923809  0.52538445
 q=  -0.18923809  0.66233331  0.52538445
  reading force constants from file 
 /n/kozinsky_lab/Users/xiey/Stanene/beta-0/ph/beta.dyn35
  nqs=            8
 q=   0.00000000  0.37847618 -0.35025630
 q=   0.00000000 -0.37847618 -0.35025630
 q=   0.00000000  0.37847618  0.35025630
 q=   0.37847618  0.00000000 -0.35025630
 q=  -0.37847618  0.00000000 -0.35025630
 q=   0.00000000 -0.37847618  0.35025630
 q=   0.37847618  0.00000000  0.35025630
 q=  -0.37847618  0.00000000  0.35025630
  reading force constants from file 
 /n/kozinsky_lab/Users/xiey/Stanene/beta-0/ph/beta.dyn36
  nqs=           16
 q=  -0.66233331 -0.28385713 -0.35025630
 q=   0.66233331 -0.28385713 -0.35025630
 q=   0.66233331  0.28385713 -0.35025630
 q=   0.66233331 -0.28385713  0.35025630
 q=  -0.66233331  0.28385713 -0.35025630
 q=  -0.28385713 -0.66233331 -0.35025630
 q=  -0.28385713  0.66233331 -0.35025630
 q=   0.28385713 -0.66233331 -0.35025630
 q=   0.66233331  0.28385713  0.35025630
 q=  -0.28385713 -0.66233331  0.35025630
 q=   0.28385713  0.66233331  0.35025630
 q=  -0.66233331  0.28385713  0.35025630
 q=   0.28385713  0.66233331 -0.35025630
 q=   0.28385713 -0.66233331  0.35025630
 q=  -0.66233331 -0.28385713  0.35025630
 q=  -0.28385713  0.66233331  0.35025630
  reading force constants from file 
 /n/kozinsky_lab/Users/xiey/Stanene/beta-0/ph/beta.dyn37
  nqs=            8
 q=  -0.56771426 -0.18923809 -0.35025630
 q=   0.56771426  0.18923809 -0.35025630
 q=   0.56771426 -0.18923809  0.35025630
 q=  -0.56771426  0.18923809 -0.35025630
 q=  -0.18923809  0.56771426 -0.35025630
 q=   0.56771426  0.18923809  0.35025630
 q=   0.18923809  0.56771426  0.35025630
 q=  -0.56771426  0.18923809  0.35025630
  reading force constants from file 
 /n/kozinsky_lab/Users/xiey/Stanene/beta-0/ph/beta.dyn38
  nqs=            8
 q=   0.00000000  0.28385713 -0.17512815
 q=   0.00000000 -0.28385713 -0.17512815
 q=   0.00000000  0.28385713  0.17512815
 q=   0.28385713  0.00000000 -0.17512815
 q=  -0.28385713  0.00000000 -0.17512815
 q=   0.00000000 -0.28385713  0.17512815
 q=   0.28385713  0.00000000  0.17512815
 q=  -0.28385713  0.00000000  0.17512815
  reading force constants from file 
 /n/kozinsky_lab/Users/xiey/Stanene/beta-0/ph/beta.dyn39
  nqs=           16
 q=   0.09461904  0.37847618 -0.17512815
 q=  -0.09461904  0.37847618 -0.17512815
 q=  -0.09461904 -0.37847618 -0.17512815
 q=  -0.09461904  0.37847618  0.17512815
 q=   0.09461904 -0.37847618 -0.17512815
 q=   0.37847618  0.09461904 -0.17512815
 q=   0.37847618 -0.09461904 -0.17512815
 q=  -0.37847618  0.09461904 -0.17512815
 q=  -0.09461904 -0.37847618  0.17512815
 q=   0.37847618  0.09461904  0.17512815
 q=  -0.37847618 -0.09461904  0.17512815
 q=   0.09461904 -0.37847618  0.17512815
 q=  -0.37847618 -0.09461904 -0.17512815
 q=  -0.37847618  0.09461904  0.17512815
 q=   0.09461904  0.37847618  0.17512815
 q=   0.37847618 -0.09461904  0.17512815
  reading force constants from file 
 /n/kozinsky_lab/Users/xiey/Stanene/beta-0/ph/beta.dyn40
  nqs=           16
 q=  -0.56771426 -0.28385713 -0.17512815
 q=   0.56771426 -0.28385713 -0.17512815
 q=   0.56771426  0.28385713 -0.17512815
 q=   0.56771426 -0.28385713  0.17512815
 q=  -0.56771426  0.28385713 -0.17512815
 q=  -0.28385713 -0.56771426 -0.17512815
 q=  -0.28385713  0.56771426 -0.17512815
 q=   0.28385713 -0.56771426 -0.17512815
 q=   0.56771426  0.28385713  0.17512815
 q=  -0.28385713 -0.56771426  0.17512815
 q=   0.28385713  0.56771426  0.17512815
 q=  -0.56771426  0.28385713  0.17512815
 q=   0.28385713  0.56771426 -0.17512815
 q=   0.28385713 -0.56771426  0.17512815
 q=  -0.56771426 -0.28385713  0.17512815
 q=  -0.28385713  0.56771426  0.17512815
  reading force constants from file 
 /n/kozinsky_lab/Users/xiey/Stanene/beta-0/ph/beta.dyn41
  nqs=            4
 q=   0.00000000  0.18923809  0.00000000
 q=   0.00000000 -0.18923809  0.00000000
 q=   0.18923809  0.00000000  0.00000000
 q=  -0.18923809  0.00000000  0.00000000
  reading force constants from file 
 /n/kozinsky_lab/Users/xiey/Stanene/beta-0/ph/beta.dyn42
  nqs=            8
 q=   0.09461904  0.28385713  0.00000000
 q=  -0.09461904  0.28385713  0.00000000
 q=   0.09461904 -0.28385713  0.00000000
 q=   0.28385713  0.09461904  0.00000000
 q=   0.28385713 -0.09461904  0.00000000
 q=  -0.28385713  0.09461904  0.00000000
 q=  -0.09461904 -0.28385713  0.00000000
 q=  -0.28385713 -0.09461904  0.00000000
  reading force constants from file 
 /n/kozinsky_lab/Users/xiey/Stanene/beta-0/ph/beta.dyn43
  nqs=            8
 q=   0.18923809  0.37847618  0.00000000
 q=  -0.18923809  0.37847618  0.00000000
 q=   0.18923809 -0.37847618  0.00000000
 q=   0.37847618  0.18923809  0.00000000
 q=   0.37847618 -0.18923809  0.00000000
 q=  -0.37847618  0.18923809  0.00000000
 q=  -0.18923809 -0.37847618  0.00000000
 q=  -0.37847618 -0.18923809  0.00000000
  reading force constants from file 
 /n/kozinsky_lab/Users/xiey/Stanene/beta-0/ph/beta.dyn44
  nqs=            4
 q=  -0.47309522 -0.28385713  0.00000000
 q=  -0.47309522  0.28385713  0.00000000
 q=  -0.28385713 -0.47309522  0.00000000
 q=  -0.28385713  0.47309522  0.00000000
  reading force constants from file 
 /n/kozinsky_lab/Users/xiey/Stanene/beta-0/ph/beta.dyn45
  nqs=            2
 q=   0.37847618  0.37847618  0.70051261
 q=  -0.37847618 -0.37847618 -0.70051261
  reading force constants from file 
 /n/kozinsky_lab/Users/xiey/Stanene/beta-0/ph/beta.dyn46
  nqs=            2
 q=   0.00000000  0.00000000  0.70051261
 q=   0.00000000  0.00000000 -0.70051261
  reading force constants from file 
 /n/kozinsky_lab/Users/xiey/Stanene/beta-0/ph/beta.dyn47
  nqs=            8
 q=   0.00000000 -0.09461904  0.87564076
 q=  -0.09461904  0.00000000  0.87564076
 q=   0.00000000  0.09461904  0.87564076
 q=   0.09461904  0.00000000  0.87564076
 q=   0.00000000  0.09461904 -0.87564076
 q=  -0.09461904  0.00000000 -0.87564076
 q=   0.00000000 -0.09461904 -0.87564076
 q=   0.09461904  0.00000000 -0.87564076
  reading force constants from file 
 /n/kozinsky_lab/Users/xiey/Stanene/beta-0/ph/beta.dyn48
  nqs=            8
 q=  -0.75695235 -0.18923809 -0.35025630
 q=  -0.18923809 -0.75695235 -0.35025630
 q=   0.75695235  0.18923809 -0.35025630
 q=   0.18923809  0.75695235 -0.35025630
 q=   0.75695235  0.18923809  0.35025630
 q=  -0.18923809 -0.75695235  0.35025630
 q=  -0.75695235 -0.18923809  0.35025630
 q=   0.18923809 -0.75695235  0.35025630
  reading force constants from file 
 /n/kozinsky_lab/Users/xiey/Stanene/beta-0/ph/beta.dyn49
  nqs=            8
 q=  -0.66233331 -0.09461904 -0.35025630
 q=  -0.09461904 -0.66233331 -0.35025630
 q=  -0.66233331  0.09461904 -0.35025630
 q=   0.66233331 -0.09461904 -0.35025630
 q=   0.66233331  0.09461904  0.35025630
 q=  -0.66233331 -0.09461904  0.35025630
 q=  -0.66233331  0.09461904  0.35025630
 q=   0.66233331 -0.09461904  0.35025630
  reading force constants from file 
 /n/kozinsky_lab/Users/xiey/Stanene/beta-0/ph/beta.dyn50
  nqs=            8
 q=   0.00000000  0.47309522 -0.17512815
 q=   0.47309522  0.00000000 -0.17512815
 q=   0.00000000 -0.47309522 -0.17512815
 q=  -0.47309522  0.00000000 -0.17512815
 q=   0.00000000 -0.47309522  0.17512815
 q=   0.47309522  0.00000000  0.17512815
 q=   0.00000000  0.47309522  0.17512815
 q=  -0.47309522  0.00000000  0.17512815
  reading force constants from file 
 /n/kozinsky_lab/Users/xiey/Stanene/beta-0/ph/beta.dyn51
  nqs=           16
 q=  -0.66233331 -0.18923809 -0.17512815
 q=   0.66233331 -0.18923809 -0.17512815
 q=  -0.18923809 -0.66233331 -0.17512815
 q=   0.66233331  0.18923809 -0.17512815
 q=  -0.66233331  0.18923809 -0.17512815
 q=   0.18923809  0.66233331 -0.17512815
 q=  -0.18923809  0.66233331 -0.17512815
 q=   0.18923809 -0.66233331 -0.17512815
 q=   0.66233331  0.18923809  0.17512815
 q=  -0.18923809 -0.66233331  0.17512815
 q=  -0.66233331 -0.18923809  0.17512815
 q=  -0.66233331  0.18923809  0.17512815
 q=   0.18923809 -0.66233331  0.17512815
 q=   0.18923809  0.66233331  0.17512815
 q=   0.66233331 -0.18923809  0.17512815
 q=  -0.18923809  0.66233331  0.17512815
  reading force constants from file 
 /n/kozinsky_lab/Users/xiey/Stanene/beta-0/ph/beta.dyn52
  nqs=            4
 q=   0.00000000  0.37847618  0.00000000
 q=   0.00000000 -0.37847618  0.00000000
 q=  -0.37847618  0.00000000  0.00000000
 q=   0.37847618  0.00000000  0.00000000
  reading force constants from file 
 /n/kozinsky_lab/Users/xiey/Stanene/beta-0/ph/beta.dyn53
  nqs=            8
 q=   0.09461904  0.47309522  0.00000000
 q=  -0.09461904  0.47309522  0.00000000
 q=   0.09461904 -0.47309522  0.00000000
 q=  -0.47309522 -0.09461904  0.00000000
 q=   0.47309522 -0.09461904  0.00000000
 q=  -0.47309522  0.09461904  0.00000000
 q=  -0.09461904 -0.47309522  0.00000000
 q=   0.47309522  0.09461904  0.00000000
  reading force constants from file 
 /n/kozinsky_lab/Users/xiey/Stanene/beta-0/ph/beta.dyn54
  nqs=            4
 q=  -0.56771426 -0.18923809  0.00000000
 q=  -0.56771426  0.18923809  0.00000000
 q=   0.56771426 -0.18923809  0.00000000
 q=   0.56771426  0.18923809  0.00000000
  reading force constants from file 
 /n/kozinsky_lab/Users/xiey/Stanene/beta-0/ph/beta.dyn55
  nqs=            2
 q=   0.00000000  0.00000000  1.05076891
 q=   0.00000000  0.00000000 -1.05076891
  reading force constants from file 
 /n/kozinsky_lab/Users/xiey/Stanene/beta-0/ph/beta.dyn56
  nqs=            8
 q=  -0.75695235 -0.09461904 -0.17512815
 q=  -0.75695235  0.09461904 -0.17512815
 q=   0.09461904  0.75695235 -0.17512815
 q=  -0.09461904  0.75695235 -0.17512815
 q=   0.75695235  0.09461904  0.17512815
 q=  -0.09461904 -0.75695235  0.17512815
 q=  -0.75695235 -0.09461904  0.17512815
 q=   0.09461904 -0.75695235  0.17512815
  reading force constants from file 
 /n/kozinsky_lab/Users/xiey/Stanene/beta-0/ph/beta.dyn57
  nqs=            4
 q=   0.00000000  0.56771426  0.00000000
 q=   0.56771426  0.00000000  0.00000000
 q=  -0.56771426  0.00000000  0.00000000
 q=   0.00000000 -0.56771426  0.00000000
  reading force constants from file 
 /n/kozinsky_lab/Users/xiey/Stanene/beta-0/ph/beta.dyn58
  nqs=            4
 q=  -0.66233331 -0.09461904  0.00000000
 q=  -0.09461904  0.66233331  0.00000000
 q=   0.09461904 -0.66233331  0.00000000
 q=  -0.09461904 -0.66233331  0.00000000
  reading force constants from file 
 /n/kozinsky_lab/Users/xiey/Stanene/beta-0/ph/beta.dyn59
  nqs=            1
 q=  -0.75695235 -0.75695235 -1.40102521

      q-space grid ok, #points =  512

      fft-check success (sum of imaginary terms < 10^-12)
 
     Q2R          :     0.09s CPU         1.23s WALL

 
   This run was terminated on:  13:44:14  12Nov2020            

=------------------------------------------------------------------------------=
   JOB DONE.
=------------------------------------------------------------------------------=
