
     Program PHONON v.6.3 starts on 10Nov2020 at 14:39:29 

     This program is part of the open-source Quantum ESPRESSO suite
     for quantum simulation of materials; please cite
         "P. Giannozzi et al., J. Phys.:Condens. Matter 21 395502 (2009);
         "P. Giannozzi et al., J. Phys.:Condens. Matter 29 465901 (2017);
          URL http://www.quantum-espresso.org", 
     in publications or presentations arising from this work. More details at
     http://www.quantum-espresso.org/quote

     Parallel version (MPI), running on   256 processors

     MPI processes distributed on     8 nodes
     K-points division:     npool     =      64
     R & G space division:  proc/nbgrp/npool/nimage =       4
      Title line not specified: using 'default'.
      Title line not specified: using 'default'.
      Title line not specified: using 'default'.
      Title line not specified: using 'default'.
      Title line not specified: using 'default'.
      Title line not specified: using 'default'.
      Title line not specified: using 'default'.
      Title line not specified: using 'default'.
      Title line not specified: using 'default'.
      Title line not specified: using 'default'.
      Title line not specified: using 'default'.
      Title line not specified: using 'default'.
      Title line not specified: using 'default'.
      Title line not specified: using 'default'.
      Title line not specified: using 'default'.
      Title line not specified: using 'default'.
      Title line not specified: using 'default'.
      Title line not specified: using 'default'.
      Title line not specified: using 'default'.
      Title line not specified: using 'default'.
      Title line not specified: using 'default'.
      Title line not specified: using 'default'.
      Title line not specified: using 'default'.
      Title line not specified: using 'default'.
      Title line not specified: using 'default'.
      Title line not specified: using 'default'.
      Title line not specified: using 'default'.
      Title line not specified: using 'default'.
      Title line not specified: using 'default'.
      Title line not specified: using 'default'.
      Title line not specified: using 'default'.
      Title line not specified: using 'default'.
      Title line not specified: using 'default'.
      Title line not specified: using 'default'.
      Title line not specified: using 'default'.
      Title line not specified: using 'default'.
      Title line not specified: using 'default'.
      Title line not specified: using 'default'.
      Title line not specified: using 'default'.
      Title line not specified: using 'default'.
      Title line not specified: using 'default'.
      Title line not specified: using 'default'.
      Title line not specified: using 'default'.
      Title line not specified: using 'default'.
      Title line not specified: using 'default'.
      Title line not specified: using 'default'.
      Title line not specified: using 'default'.
      Title line not specified: using 'default'.
      Title line not specified: using 'default'.
      Title line not specified: using 'default'.
      Title line not specified: using 'default'.
      Title line not specified: using 'default'.
      Title line not specified: using 'default'.
      Title line not specified: using 'default'.
      Title line not specified: using 'default'.
      Title line not specified: using 'default'.
      Title line not specified: using 'default'.
      Title line not specified: using 'default'.
      Title line not specified: using 'default'.
      Title line not specified: using 'default'.
      Title line not specified: using 'default'.
      Title line not specified: using 'default'.
      Title line not specified: using 'default'.
      Title line not specified: using 'default'.
      Title line not specified: using 'default'.
      Title line not specified: using 'default'.
      Title line not specified: using 'default'.
      Title line not specified: using 'default'.
      Title line not specified: using 'default'.
      Title line not specified: using 'default'.
      Title line not specified: using 'default'.
      Title line not specified: using 'default'.
      Title line not specified: using 'default'.
      Title line not specified: using 'default'.
      Title line not specified: using 'default'.
      Title line not specified: using 'default'.
      Title line not specified: using 'default'.
      Title line not specified: using 'default'.
      Title line not specified: using 'default'.
      Title line not specified: using 'default'.
      Title line not specified: using 'default'.
      Title line not specified: using 'default'.
      Title line not specified: using 'default'.
      Title line not specified: using 'default'.
      Title line not specified: using 'default'.
      Title line not specified: using 'default'.
      Title line not specified: using 'default'.
      Title line not specified: using 'default'.
      Title line not specified: using 'default'.
      Title line not specified: using 'default'.
      Title line not specified: using 'default'.
      Title line not specified: using 'default'.
      Title line not specified: using 'default'.
      Title line not specified: using 'default'.
      Title line not specified: using 'default'.
      Title line not specified: using 'default'.
      Title line not specified: using 'default'.
      Title line not specified: using 'default'.
      Title line not specified: using 'default'.
      Title line not specified: using 'default'.
      Title line not specified: using 'default'.
      Title line not specified: using 'default'.
      Title line not specified: using 'default'.
      Title line not specified: using 'default'.
      Title line not specified: using 'default'.
      Title line not specified: using 'default'.
      Title line not specified: using 'default'.
      Title line not specified: using 'default'.
      Title line not specified: using 'default'.
      Title line not specified: using 'default'.
      Title line not specified: using 'default'.
      Title line not specified: using 'default'.
      Title line not specified: using 'default'.
      Title line not specified: using 'default'.
      Title line not specified: using 'default'.
      Title line not specified: using 'default'.
      Title line not specified: using 'default'.
      Title line not specified: using 'default'.
      Title line not specified: using 'default'.
      Title line not specified: using 'default'.
      Title line not specified: using 'default'.
      Title line not specified: using 'default'.
      Title line not specified: using 'default'.
      Title line not specified: using 'default'.
      Title line not specified: using 'default'.
      Title line not specified: using 'default'.
      Title line not specified: using 'default'.
      Title line not specified: using 'default'.
      Title line not specified: using 'default'.
      Title line not specified: using 'default'.
      Title line not specified: using 'default'.
      Title line not specified: using 'default'.
      Title line not specified: using 'default'.
      Title line not specified: using 'default'.
      Title line not specified: using 'default'.
      Title line not specified: using 'default'.
      Title line not specified: using 'default'.
      Title line not specified: using 'default'.
      Title line not specified: using 'default'.
      Title line not specified: using 'default'.
      Title line not specified: using 'default'.
      Title line not specified: using 'default'.
      Title line not specified: using 'default'.
      Title line not specified: using 'default'.
      Title line not specified: using 'default'.
      Title line not specified: using 'default'.
      Title line not specified: using 'default'.
      Title line not specified: using 'default'.
      Title line not specified: using 'default'.
      Title line not specified: using 'default'.
      Title line not specified: using 'default'.
      Title line not specified: using 'default'.
      Title line not specified: using 'default'.
      Title line not specified: using 'default'.
      Title line not specified: using 'default'.
      Title line not specified: using 'default'.
      Title line not specified: using 'default'.
      Title line not specified: using 'default'.
      Title line not specified: using 'default'.
      Title line not specified: using 'default'.
      Title line not specified: using 'default'.
      Title line not specified: using 'default'.
      Title line not specified: using 'default'.
      Title line not specified: using 'default'.
      Title line not specified: using 'default'.
      Title line not specified: using 'default'.
      Title line not specified: using 'default'.
      Title line not specified: using 'default'.
      Title line not specified: using 'default'.
      Title line not specified: using 'default'.
      Title line not specified: using 'default'.
      Title line not specified: using 'default'.
      Title line not specified: using 'default'.
      Title line not specified: using 'default'.
      Title line not specified: using 'default'.
      Title line not specified: using 'default'.
      Title line not specified: using 'default'.
      Title line not specified: using 'default'.
      Title line not specified: using 'default'.
      Title line not specified: using 'default'.
      Title line not specified: using 'default'.
      Title line not specified: using 'default'.
      Title line not specified: using 'default'.
      Title line not specified: using 'default'.
      Title line not specified: using 'default'.
      Title line not specified: using 'default'.
      Title line not specified: using 'default'.
      Title line not specified: using 'default'.
      Title line not specified: using 'default'.
      Title line not specified: using 'default'.
      Title line not specified: using 'default'.
      Title line not specified: using 'default'.
      Title line not specified: using 'default'.
      Title line not specified: using 'default'.
      Title line not specified: using 'default'.
      Title line not specified: using 'default'.
      Title line not specified: using 'default'.
      Title line not specified: using 'default'.
      Title line not specified: using 'default'.
      Title line not specified: using 'default'.
      Title line not specified: using 'default'.
      Title line not specified: using 'default'.
      Title line not specified: using 'default'.
      Title line not specified: using 'default'.
      Title line not specified: using 'default'.
      Title line not specified: using 'default'.
      Title line not specified: using 'default'.
      Title line not specified: using 'default'.
      Title line not specified: using 'default'.
      Title line not specified: using 'default'.
      Title line not specified: using 'default'.
      Title line not specified: using 'default'.
      Title line not specified: using 'default'.
      Title line not specified: using 'default'.
      Title line not specified: using 'default'.
      Title line not specified: using 'default'.
      Title line not specified: using 'default'.
      Title line not specified: using 'default'.
      Title line not specified: using 'default'.
      Title line not specified: using 'default'.
      Title line not specified: using 'default'.
      Title line not specified: using 'default'.
      Title line not specified: using 'default'.
      Title line not specified: using 'default'.
      Title line not specified: using 'default'.
      Title line not specified: using 'default'.
      Title line not specified: using 'default'.
      Title line not specified: using 'default'.
      Title line not specified: using 'default'.
      Title line not specified: using 'default'.
      Title line not specified: using 'default'.
      Title line not specified: using 'default'.
      Title line not specified: using 'default'.
      Title line not specified: using 'default'.
      Title line not specified: using 'default'.
      Title line not specified: using 'default'.
      Title line not specified: using 'default'.
      Title line not specified: using 'default'.
      Title line not specified: using 'default'.
      Title line not specified: using 'default'.
      Title line not specified: using 'default'.
      Title line not specified: using 'default'.
      Title line not specified: using 'default'.
      Title line not specified: using 'default'.
      Title line not specified: using 'default'.
      Title line not specified: using 'default'.
      Title line not specified: using 'default'.
      Title line not specified: using 'default'.
      Title line not specified: using 'default'.
      Title line not specified: using 'default'.
      Title line not specified: using 'default'.
      Title line not specified: using 'default'.
      Title line not specified: using 'default'.
      Title line not specified: using 'default'.
      Title line not specified: using 'default'.
      Title line not specified: using 'default'.

     Reading data from directory:
     /n/kozinsky_lab/Users/xiey/Stanene/beta-0/scf/out/scf.save/

     IMPORTANT: XC functional enforced from input :
     Exchange-correlation      = PBESOL ( 1  4 10  8 0 0)
     Any further DFT definition will be discarded
     Please, verify this is what you really want

 
     Parallelization info
     --------------------
     sticks:   dense  smooth     PW     G-vecs:    dense   smooth      PW
     Min         588     292     98                24580     8696    1654
     Max         589     293     99                24583     8699    1655
     Sum        2353    1169    393                98323    34789    6617
 


     Dynamical matrices for ( 8, 8, 8)  uniform grid of q-points
     (  59 q-points):
       N         xq(1)         xq(2)         xq(3) 
       1   0.000000000   0.000000000   0.000000000
       2   0.094619044   0.094619044   0.000000000
       3   0.189238088   0.189238088   0.000000000
       4   0.283857132   0.283857132   0.000000000
       5  -0.378476176  -0.378476176   0.000000000
       6   0.094619044   0.000000000   0.175128152
       7   0.189238088   0.094619044   0.175128152
       8   0.283857132   0.189238088   0.175128152
       9   0.378476176   0.283857132   0.175128152
      10   0.189238088   0.000000000   0.350256303
      11   0.283857132   0.094619044   0.350256303
      12   0.378476176   0.189238088   0.350256303
      13   0.473095220   0.283857132   0.350256303
      14   0.094619044  -0.094619044   0.350256303
      15   0.283857132   0.000000000   0.525384455
      16   0.378476176   0.094619044   0.525384455
      17   0.473095220   0.189238088   0.525384455
      18   0.094619044  -0.189238088   0.525384455
      19  -0.378476176   0.000000000  -0.700512607
      20  -0.283857132   0.094619044  -0.700512607
      21  -0.189238088   0.189238088  -0.700512607
      22   0.189238088   0.189238088   0.350256303
      23   0.283857132   0.283857132   0.350256303
      24   0.378476176   0.378476176   0.350256303
      25   0.000000000   0.000000000   0.350256303
      26   0.283857132   0.189238088   0.525384455
      27   0.378476176   0.283857132   0.525384455
      28   0.000000000  -0.094619044   0.525384455
      29   0.378476176   0.189238088   0.700512607
      30   0.473095220   0.283857132   0.700512607
      31   0.000000000  -0.189238088   0.700512607
      32   0.094619044  -0.094619044   0.700512607
      33  -0.756952352  -0.283857132  -0.525384455
      34  -0.662333308  -0.189238088  -0.525384455
      35   0.000000000   0.378476176  -0.350256303
      36  -0.662333308  -0.283857132  -0.350256303
      37  -0.567714264  -0.189238088  -0.350256303
      38   0.000000000   0.283857132  -0.175128152
      39   0.094619044   0.378476176  -0.175128152
      40  -0.567714264  -0.283857132  -0.175128152
      41   0.000000000   0.189238088   0.000000000
      42   0.094619044   0.283857132   0.000000000
      43   0.189238088   0.378476176   0.000000000
      44  -0.473095220  -0.283857132   0.000000000
      45   0.378476176   0.378476176   0.700512607
      46   0.000000000   0.000000000   0.700512607
      47   0.000000000  -0.094619044   0.875640758
      48  -0.756952352  -0.189238088  -0.350256303
      49  -0.662333308  -0.094619044  -0.350256303
      50   0.000000000   0.473095220  -0.175128152
      51  -0.662333308  -0.189238088  -0.175128152
      52   0.000000000   0.378476176   0.000000000
      53   0.094619044   0.473095220   0.000000000
      54  -0.567714264  -0.189238088   0.000000000
      55   0.000000000   0.000000000   1.050768910
      56  -0.756952352  -0.094619044  -0.175128152
      57   0.000000000   0.567714264   0.000000000
      58  -0.662333308  -0.094619044   0.000000000
      59  -0.756952352  -0.756952352  -1.401025213

     Calculation of q =    0.0000000   0.0000000   0.0000000

     default                                                                    

     bravais-lattice index     =            0
     lattice parameter (alat)  =       8.3266  a.u.
     unit-cell volume          =     359.5699 (a.u.)^3
     number of atoms/cell      =            2
     number of atomic types    =            1
     kinetic-energy cut-off    =      80.0000  Ry
     charge density cut-off    =     640.0000  Ry
     convergence threshold     =      1.0E-20
     beta                      =       0.7000
     number of iterations used =            4
     Exchange-correlation      = PBESOL ( 1  4 10  8 0 0)


     celldm(1)=   11.00011  celldm(2)=    1.00000  celldm(3)=    0.54028
     celldm(4)=    0.00000  celldm(5)=    0.00000  celldm(6)=    0.00000

     crystal axes: (cart. coord. in units of alat)
               a(1) = ( -0.6605  0.6605  0.3569 )  
               a(2) = (  0.6605 -0.6605  0.3569 )  
               a(3) = (  0.6605  0.6605 -0.3569 )  

     reciprocal axes: (cart. coord. in units 2 pi/alat)
               b(1) = (  0.0000  0.7570  1.4010 )  
               b(2) = (  0.7570  0.0000  1.4010 )  
               b(3) = (  0.7570  0.7570  0.0000 )  


     Atoms inside the unit cell: 

     Cartesian axes

     site n.  atom      mass           positions (alat units)
        1     Sn 118.7100   tau(    1) = (    0.00000    0.00000    0.00000  )
        2     Sn 118.7100   tau(    2) = (    0.66054    0.00000    0.17844  )

     Computing dynamical matrix for 
                    q = (   0.0000000   0.0000000   0.0000000 )
 
     17 Sym.Ops. (with q -> -q+G )


     G cutoff = 1123.9608  (  24580 G-vectors)     FFT grid: ( 72, 72, 72)
     G cutoff =  561.9804  (   8698 G-vectors)  smooth grid: ( 48, 48, 48)

     number of k points=   349  mv smearing, width (Ry)=  0.0100

     PseudoPot. # 1 for Sn read from file:
     /n/home08/xiey/q-e/pseudo/sn_pbesol_v1.4.uspp.F.UPF
     MD5 check sum: 463fec1d5456f1e96ec1bfcad4b7b038
     Pseudo is Ultrasoft + core correction, Zval = 14.0
     Generated by new atomic code, or converted to UPF format
     Using radial grid of  891 points,  6 beta functions with: 
                l(1) =   0
                l(2) =   0
                l(3) =   1
                l(4) =   1
                l(5) =   2
                l(6) =   2
     Q(r) pseudized with  8 coefficients,  rinner =    1.350   1.350   1.350
                                                       1.350   1.350

     Mode symmetry, D_4h(4/mmm) point group:


     Atomic displacements:
     There are   4 irreducible representations

     Representation     1      1 modes -B_1g X_2  M_2  To be done

     Representation     2      2 modes -E_g  X_5  M_5  To be done

     Representation     3      1 modes -A_2u X_4' M_4'  To be done

     Representation     4      2 modes -E_u  X_5' M_5'  To be done



     Alpha used in Ewald sum =   2.8000
     PHONON       :    14.41s CPU        16.09s WALL



     Representation #  1 mode #   1

     Self-consistent Calculation
 
     Pert. #  1: Fermi energy shift (Ry) =    -1.7347E-18     0.0000E+00

      iter #   1 total cpu time :    19.7 secs   av.it.:   7.3
      thresh= 1.000E-02 alpha_mix =  0.700 |ddv_scf|^2 =  2.081E-06
 
     Pert. #  1: Fermi energy shift (Ry) =     0.0000E+00     1.1479E-41

      iter #   2 total cpu time :    24.1 secs   av.it.:  13.6
      thresh= 1.443E-04 alpha_mix =  0.700 |ddv_scf|^2 =  6.425E-08
 
     Pert. #  1: Fermi energy shift (Ry) =     1.0842E-19     2.2959E-41

      iter #   3 total cpu time :    28.3 secs   av.it.:  13.4
      thresh= 2.535E-05 alpha_mix =  0.700 |ddv_scf|^2 =  1.726E-10
 
     Pert. #  1: Fermi energy shift (Ry) =     0.0000E+00     0.0000E+00

      iter #   4 total cpu time :    32.5 secs   av.it.:  13.0
      thresh= 1.314E-06 alpha_mix =  0.700 |ddv_scf|^2 =  2.846E-12
 
     Pert. #  1: Fermi energy shift (Ry) =    -1.0842E-19     0.0000E+00

      iter #   5 total cpu time :    36.6 secs   av.it.:  12.4
      thresh= 1.687E-07 alpha_mix =  0.700 |ddv_scf|^2 =  7.471E-14
 
     Pert. #  1: Fermi energy shift (Ry) =     0.0000E+00     0.0000E+00

      iter #   6 total cpu time :    40.9 secs   av.it.:  13.3
      thresh= 2.733E-08 alpha_mix =  0.700 |ddv_scf|^2 =  1.132E-16
 
     Pert. #  1: Fermi energy shift (Ry) =     0.0000E+00     0.0000E+00

      iter #   7 total cpu time :    45.0 secs   av.it.:  12.7
      thresh= 1.064E-09 alpha_mix =  0.700 |ddv_scf|^2 =  2.524E-18
 
     Pert. #  1: Fermi energy shift (Ry) =     0.0000E+00     0.0000E+00

      iter #   8 total cpu time :    49.3 secs   av.it.:  12.9
      thresh= 1.589E-10 alpha_mix =  0.700 |ddv_scf|^2 =  1.126E-20
 
     Pert. #  1: Fermi energy shift (Ry) =     1.0842E-19     0.0000E+00

      iter #   9 total cpu time :    53.7 secs   av.it.:  13.2
      thresh= 1.061E-11 alpha_mix =  0.700 |ddv_scf|^2 =  1.321E-22

     End of self-consistent calculation

     Convergence has been achieved 


     Representation #  2 modes #   2  3

     Self-consistent Calculation
 
     Pert. #  1: Fermi energy shift (Ry) =     2.1684E-19    -2.9387E-39
     Pert. #  2: Fermi energy shift (Ry) =    -8.4224E-19    -5.5101E-40

      iter #   1 total cpu time :    63.1 secs   av.it.:   8.4
      thresh= 1.000E-02 alpha_mix =  0.700 |ddv_scf|^2 =  2.781E-06
 
     Pert. #  1: Fermi energy shift (Ry) =    -3.2526E-19     1.1479E-41
     Pert. #  2: Fermi energy shift (Ry) =     8.5275E-19     1.7937E-42

      iter #   2 total cpu time :    71.8 secs   av.it.:  14.8
      thresh= 1.668E-04 alpha_mix =  0.700 |ddv_scf|^2 =  1.157E-06
 
     Pert. #  1: Fermi energy shift (Ry) =    -1.6263E-19     1.4349E-42
     Pert. #  2: Fermi energy shift (Ry) =     2.0516E-19    -5.5211E-42

      iter #   3 total cpu time :    79.9 secs   av.it.:  13.9
      thresh= 1.076E-04 alpha_mix =  0.700 |ddv_scf|^2 =  7.040E-10
 
     Pert. #  1: Fermi energy shift (Ry) =    -5.4210E-20     0.0000E+00
     Pert. #  2: Fermi energy shift (Ry) =     2.0332E-19    -5.8294E-43

      iter #   4 total cpu time :    87.9 secs   av.it.:  13.7
      thresh= 2.653E-06 alpha_mix =  0.700 |ddv_scf|^2 =  3.499E-12
 
     Pert. #  1: Fermi energy shift (Ry) =     3.2526E-19    -8.9683E-44
     Pert. #  2: Fermi energy shift (Ry) =     2.0326E-19    -1.6816E-44

      iter #   5 total cpu time :    96.4 secs   av.it.:  14.2
      thresh= 1.871E-07 alpha_mix =  0.700 |ddv_scf|^2 =  6.593E-14
 
     Pert. #  1: Fermi energy shift (Ry) =    -1.0842E-19     0.0000E+00
     Pert. #  2: Fermi energy shift (Ry) =     9.4818E-20    -1.2612E-44

      iter #   6 total cpu time :   105.1 secs   av.it.:  15.0
      thresh= 2.568E-08 alpha_mix =  0.700 |ddv_scf|^2 =  2.941E-16
 
     Pert. #  1: Fermi energy shift (Ry) =     2.1684E-19    -4.4842E-44
     Pert. #  2: Fermi energy shift (Ry) =     2.0324E-19    -4.6243E-44

      iter #   7 total cpu time :   113.4 secs   av.it.:  14.5
      thresh= 1.715E-09 alpha_mix =  0.700 |ddv_scf|^2 =  7.106E-18
 
     Pert. #  1: Fermi energy shift (Ry) =    -1.0842E-19     0.0000E+00
     Pert. #  2: Fermi energy shift (Ry) =     9.4817E-20    -1.8217E-44

      iter #   8 total cpu time :   121.9 secs   av.it.:  15.1
      thresh= 2.666E-10 alpha_mix =  0.700 |ddv_scf|^2 =  3.768E-19
 
     Pert. #  1: Fermi energy shift (Ry) =     0.0000E+00     0.0000E+00
     Pert. #  2: Fermi energy shift (Ry) =     9.4817E-20    -1.8217E-44

      iter #   9 total cpu time :   130.0 secs   av.it.:  14.0
      thresh= 6.138E-11 alpha_mix =  0.700 |ddv_scf|^2 =  3.610E-21

     End of self-consistent calculation

     Convergence has been achieved 


     Representation #  3 mode #   4

     Self-consistent Calculation
 
     Pert. #  1: Fermi energy shift (Ry) =     0.0000E+00     3.7616E-37

      iter #   1 total cpu time :   134.4 secs   av.it.:   7.2
      thresh= 1.000E-02 alpha_mix =  0.700 |ddv_scf|^2 =  2.088E-06
 
     Pert. #  1: Fermi energy shift (Ry) =    -5.1699E-26     2.2959E-41

      iter #   2 total cpu time :   138.7 secs   av.it.:  13.6
      thresh= 1.445E-04 alpha_mix =  0.700 |ddv_scf|^2 =  6.556E-08
 
     Pert. #  1: Fermi energy shift (Ry) =    -3.1019E-25    -3.6734E-40

      iter #   3 total cpu time :   143.0 secs   av.it.:  13.4
      thresh= 2.560E-05 alpha_mix =  0.700 |ddv_scf|^2 =  1.695E-10
 
     Pert. #  1: Fermi energy shift (Ry) =    -1.6156E-26     2.2959E-41

      iter #   4 total cpu time :   147.2 secs   av.it.:  13.1
      thresh= 1.302E-06 alpha_mix =  0.700 |ddv_scf|^2 =  1.517E-12
 
     Pert. #  1: Fermi energy shift (Ry) =     0.0000E+00    -2.8699E-42

      iter #   5 total cpu time :   151.5 secs   av.it.:  13.6
      thresh= 1.232E-07 alpha_mix =  0.700 |ddv_scf|^2 =  5.128E-15
 
     Pert. #  1: Fermi energy shift (Ry) =     4.0390E-28    -7.1746E-43

      iter #   6 total cpu time :   155.7 secs   av.it.:  12.9
      thresh= 7.161E-09 alpha_mix =  0.700 |ddv_scf|^2 =  1.643E-16
 
     Pert. #  1: Fermi energy shift (Ry) =    -4.0390E-28    -1.4349E-42

      iter #   7 total cpu time :   160.0 secs   av.it.:  13.4
      thresh= 1.282E-09 alpha_mix =  0.700 |ddv_scf|^2 =  4.463E-19
 
     Pert. #  1: Fermi energy shift (Ry) =     4.0390E-28    -1.4349E-42

      iter #   8 total cpu time :   164.3 secs   av.it.:  13.4
      thresh= 6.681E-11 alpha_mix =  0.700 |ddv_scf|^2 =  2.946E-20
 
     Pert. #  1: Fermi energy shift (Ry) =    -1.2117E-27    -1.4349E-42

      iter #   9 total cpu time :   168.8 secs   av.it.:  13.8
      thresh= 1.717E-11 alpha_mix =  0.700 |ddv_scf|^2 =  9.991E-23

     End of self-consistent calculation

     Convergence has been achieved 


     Representation #  4 modes #   5  6

     Self-consistent Calculation
 
     Pert. #  1: Fermi energy shift (Ry) =     6.4623E-27     2.0689E-36
     Pert. #  2: Fermi energy shift (Ry) =    -6.8687E-27     1.5987E-36

      iter #   1 total cpu time :   175.4 secs   av.it.:   7.3
      thresh= 1.000E-02 alpha_mix =  0.700 |ddv_scf|^2 =  5.443E-07
 
     Pert. #  1: Fermi energy shift (Ry) =    -6.4623E-27    -1.4694E-39
     Pert. #  2: Fermi energy shift (Ry) =    -3.2617E-27     3.6734E-40

      iter #   2 total cpu time :   183.9 secs   av.it.:  15.1
      thresh= 7.378E-05 alpha_mix =  0.700 |ddv_scf|^2 =  1.978E-08
 
     Pert. #  1: Fermi energy shift (Ry) =     6.4623E-27    -4.5918E-40
     Pert. #  2: Fermi energy shift (Ry) =    -5.9841E-27    -7.6625E-40

      iter #   3 total cpu time :   192.2 secs   av.it.:  14.7
      thresh= 1.407E-05 alpha_mix =  0.700 |ddv_scf|^2 =  5.845E-11
 
     Pert. #  1: Fermi energy shift (Ry) =     0.0000E+00     2.2959E-41
     Pert. #  2: Fermi energy shift (Ry) =    -3.1239E-27    -8.6096E-42

      iter #   4 total cpu time :   200.4 secs   av.it.:  14.4
      thresh= 7.645E-07 alpha_mix =  0.700 |ddv_scf|^2 =  5.354E-13
 
     Pert. #  1: Fermi energy shift (Ry) =     1.6156E-27    -8.0715E-43
     Pert. #  2: Fermi energy shift (Ry) =     1.8308E-27     3.8115E-43

      iter #   5 total cpu time :   208.9 secs   av.it.:  15.0
      thresh= 7.317E-08 alpha_mix =  0.700 |ddv_scf|^2 =  1.405E-15
 
     Pert. #  1: Fermi energy shift (Ry) =     0.0000E+00     7.1746E-43
     Pert. #  2: Fermi energy shift (Ry) =     6.2804E-27     3.5873E-43

      iter #   6 total cpu time :   217.1 secs   av.it.:  14.0
      thresh= 3.748E-09 alpha_mix =  0.700 |ddv_scf|^2 =  4.115E-17
 
     Pert. #  1: Fermi energy shift (Ry) =    -1.6156E-27     2.1524E-42
     Pert. #  2: Fermi energy shift (Ry) =     6.2608E-28     2.6905E-42

      iter #   7 total cpu time :   225.5 secs   av.it.:  14.9
      thresh= 6.415E-10 alpha_mix =  0.700 |ddv_scf|^2 =  2.130E-19
 
     Pert. #  1: Fermi energy shift (Ry) =    -1.6156E-27    -7.1746E-43
     Pert. #  2: Fermi energy shift (Ry) =     3.0494E-27     1.2556E-42

      iter #   8 total cpu time :   233.8 secs   av.it.:  14.6
      thresh= 4.615E-11 alpha_mix =  0.700 |ddv_scf|^2 =  5.594E-21

     End of self-consistent calculation

     Convergence has been achieved 
 
     Number of q in the star =    1
     List of q in the star:
          1   0.000000000   0.000000000   0.000000000

     Diagonalizing the dynamical matrix

     q = (    0.000000000   0.000000000   0.000000000 ) 

 **************************************************************************
     freq (    1) =      -0.056418 [THz] =      -1.881913 [cm-1]
     freq (    2) =      -0.055713 [THz] =      -1.858375 [cm-1]
     freq (    3) =      -0.055713 [THz] =      -1.858375 [cm-1]
     freq (    4) =       1.419473 [THz] =      47.348527 [cm-1]
     freq (    5) =       4.046489 [THz] =     134.976331 [cm-1]
     freq (    6) =       4.046489 [THz] =     134.976331 [cm-1]
 **************************************************************************

     Mode symmetry, D_4h(4/mmm) point group:

     freq (  1 -  1) =         -1.9  [cm-1]   --> A_2u X_4' M_4'  I  
     freq (  2 -  3) =         -1.9  [cm-1]   --> E_u  X_5' M_5'  I  
     freq (  4 -  4) =         47.3  [cm-1]   --> B_1g X_2  M_2   R  
     freq (  5 -  6) =        135.0  [cm-1]   --> E_g  X_5  M_5   R  

     Calculation of q =    0.0946190   0.0946190   0.0000000

     Subspace diagonalization in iterative solution of the eigenvalue problem:
     a serial algorithm will be used

 
     Parallelization info
     --------------------
     sticks:   dense  smooth     PW     G-vecs:    dense   smooth      PW
     Min         588     292     98                24580     8696    1654
     Max         589     293     99                24583     8699    1655
     Sum        2353    1169    393                98323    34789    6617
 

     Title: 
     default                                                                    


     bravais-lattice index     =            0
     lattice parameter (alat)  =       8.3266  a.u.
     unit-cell volume          =     359.5699 (a.u.)^3
     number of atoms/cell      =            2
     number of atomic types    =            1
     number of electrons       =        28.00
     number of Kohn-Sham states=           18
     kinetic-energy cutoff     =      80.0000  Ry
     charge density cutoff     =     640.0000  Ry
     Exchange-correlation      = PBESOL ( 1  4 10  8 0 0)

     celldm(1)=  11.000107  celldm(2)=   1.000000  celldm(3)=   0.540285
     celldm(4)=   0.000000  celldm(5)=   0.000000  celldm(6)=   0.000000

     crystal axes: (cart. coord. in units of alat)
               a(1) = (  -0.660544   0.660544   0.356882 )  
               a(2) = (   0.660544  -0.660544   0.356882 )  
               a(3) = (   0.660544   0.660544  -0.356882 )  

     reciprocal axes: (cart. coord. in units 2 pi/alat)
               b(1) = (  0.000000  0.756952  1.401025 )  
               b(2) = (  0.756952  0.000000  1.401025 )  
               b(3) = (  0.756952  0.756952  0.000000 )  


     PseudoPot. # 1 for Sn read from file:
     /n/home08/xiey/q-e/pseudo/sn_pbesol_v1.4.uspp.F.UPF
     MD5 check sum: 463fec1d5456f1e96ec1bfcad4b7b038
     Pseudo is Ultrasoft + core correction, Zval = 14.0
     Generated by new atomic code, or converted to UPF format
     Using radial grid of  891 points,  6 beta functions with: 
                l(1) =   0
                l(2) =   0
                l(3) =   1
                l(4) =   1
                l(5) =   2
                l(6) =   2
     Q(r) pseudized with  8 coefficients,  rinner =    1.350   1.350   1.350
                                                       1.350   1.350

     atomic species   valence    mass     pseudopotential
        Sn            14.00   118.71000     Sn( 1.00)

     16 Sym. Ops., with inversion, found



   Cartesian axes

     site n.     atom                  positions (alat units)
         1           Sn  tau(   1) = (   0.0000000   0.0000000   0.0000000  )
         2           Sn  tau(   2) = (   0.6605436   0.0000000   0.1784408  )

     number of k points=  2320  mv smearing, width (Ry)=  0.0100

     Number of k-points >= 100: set verbosity='high' to print them.

     Dense  grid:    98323 G-vectors     FFT dimensions: (  72,  72,  72)

     Smooth grid:    34789 G-vectors     FFT dimensions: (  48,  48,  48)

     Estimated max dynamical RAM per process >      16.88 MB

     Estimated total dynamical RAM >       4.22 GB

     The potential is recalculated from file :
     /n/kozinsky_lab/Users/xiey/Stanene/beta-0/scf/out/_ph0/scf.save/charge-density.dat

     Starting wfcs are   18 atomic wfcs

     Band Structure Calculation
     Davidson diagonalization with overlap

     ethr =  3.57E-11,  avg # of iterations = 17.7

     total cpu time spent up to now is       24.7 secs

     End of band structure calculation

     Number of k-points >= 100: set verbosity='high' to print the bands.

     the Fermi energy is    10.8896 ev

     Writing output data file scf.save/

     default                                                                    

     bravais-lattice index     =            0
     lattice parameter (alat)  =       8.3266  a.u.
     unit-cell volume          =     359.5699 (a.u.)^3
     number of atoms/cell      =            2
     number of atomic types    =            1
     kinetic-energy cut-off    =      80.0000  Ry
     charge density cut-off    =     640.0000  Ry
     convergence threshold     =      1.0E-20
     beta                      =       0.7000
     number of iterations used =            4
     Exchange-correlation      = PBESOL ( 1  4 10  8 0 0)


     celldm(1)=   11.00011  celldm(2)=    1.00000  celldm(3)=    0.54028
     celldm(4)=    0.00000  celldm(5)=    0.00000  celldm(6)=    0.00000

     crystal axes: (cart. coord. in units of alat)
               a(1) = ( -0.6605  0.6605  0.3569 )  
               a(2) = (  0.6605 -0.6605  0.3569 )  
               a(3) = (  0.6605  0.6605 -0.3569 )  

     reciprocal axes: (cart. coord. in units 2 pi/alat)
               b(1) = (  0.0000  0.7570  1.4010 )  
               b(2) = (  0.7570  0.0000  1.4010 )  
               b(3) = (  0.7570  0.7570  0.0000 )  


     Atoms inside the unit cell: 

     Cartesian axes

     site n.  atom      mass           positions (alat units)
        1     Sn 118.7100   tau(    1) = (    0.00000    0.00000    0.00000  )
        2     Sn 118.7100   tau(    2) = (    0.66054    0.00000    0.17844  )

     Computing dynamical matrix for 
                    q = (   0.0946190   0.0946190   0.0000000 )
 
      4 Sym.Ops. (no q -> -q+G )


     G cutoff = 1123.9608  (  24580 G-vectors)     FFT grid: ( 72, 72, 72)
     G cutoff =  561.9804  (   8698 G-vectors)  smooth grid: ( 48, 48, 48)

     number of k points=  2320  mv smearing, width (Ry)=  0.0100

     PseudoPot. # 1 for Sn read from file:
     /n/home08/xiey/q-e/pseudo/sn_pbesol_v1.4.uspp.F.UPF
     MD5 check sum: 463fec1d5456f1e96ec1bfcad4b7b038
     Pseudo is Ultrasoft + core correction, Zval = 14.0
     Generated by new atomic code, or converted to UPF format
     Using radial grid of  891 points,  6 beta functions with: 
                l(1) =   0
                l(2) =   0
                l(3) =   1
                l(4) =   1
                l(5) =   2
                l(6) =   2
     Q(r) pseudized with  8 coefficients,  rinner =    1.350   1.350   1.350
                                                       1.350   1.350

     Mode symmetry, C_2v (mm2)  point group:


     Atomic displacements:
     There are   6 irreducible representations

     Representation     1      1 modes -A_1  D_1  S_1  To be done

     Representation     2      1 modes -A_2  D_2  S_2  To be done

     Representation     3      1 modes -B_1  D_3  S_3  To be done

     Representation     4      1 modes -B_1  D_3  S_3  To be done

     Representation     5      1 modes -B_2  D_4  S_4  To be done

     Representation     6      1 modes -B_2  D_4  S_4  To be done



     Alpha used in Ewald sum =   2.8000
     PHONON       :  4m22.78s CPU     4m34.93s WALL



     Representation #  1 mode #   1

     Self-consistent Calculation

      iter #   1 total cpu time :   283.9 secs   av.it.:   9.4
      thresh= 1.000E-02 alpha_mix =  0.700 |ddv_scf|^2 =  8.648E-01

      iter #   2 total cpu time :   295.4 secs   av.it.:  13.8
      thresh= 1.000E-02 alpha_mix =  0.700 |ddv_scf|^2 =  2.867E+03

      iter #   3 total cpu time :   307.0 secs   av.it.:  13.8
      thresh= 1.000E-02 alpha_mix =  0.700 |ddv_scf|^2 =  9.648E-02

      iter #   4 total cpu time :   313.9 secs   av.it.:   6.3
      thresh= 1.000E-02 alpha_mix =  0.700 |ddv_scf|^2 =  5.531E-06

      iter #   5 total cpu time :   322.8 secs   av.it.:   9.7
      thresh= 2.352E-04 alpha_mix =  0.700 |ddv_scf|^2 =  1.238E-07

      iter #   6 total cpu time :   331.9 secs   av.it.:  10.3
      thresh= 3.518E-05 alpha_mix =  0.700 |ddv_scf|^2 =  8.971E-09

      iter #   7 total cpu time :   339.4 secs   av.it.:   7.2
      thresh= 9.471E-06 alpha_mix =  0.700 |ddv_scf|^2 =  5.784E-08

      iter #   8 total cpu time :   346.1 secs   av.it.:   6.3
      thresh= 2.405E-05 alpha_mix =  0.700 |ddv_scf|^2 =  9.609E-11

      iter #   9 total cpu time :   355.1 secs   av.it.:   9.9
      thresh= 9.803E-07 alpha_mix =  0.700 |ddv_scf|^2 =  5.680E-13

      iter #  10 total cpu time :   365.0 secs   av.it.:  11.5
      thresh= 7.537E-08 alpha_mix =  0.700 |ddv_scf|^2 =  9.956E-14

      iter #  11 total cpu time :   374.1 secs   av.it.:   9.9
      thresh= 3.155E-08 alpha_mix =  0.700 |ddv_scf|^2 =  5.306E-15

      iter #  12 total cpu time :   382.9 secs   av.it.:   9.8
      thresh= 7.284E-09 alpha_mix =  0.700 |ddv_scf|^2 =  6.713E-18

      iter #  13 total cpu time :   393.3 secs   av.it.:  12.2
      thresh= 2.591E-10 alpha_mix =  0.700 |ddv_scf|^2 =  1.913E-17

      iter #  14 total cpu time :   401.6 secs   av.it.:   8.9
      thresh= 4.374E-10 alpha_mix =  0.700 |ddv_scf|^2 =  2.470E-18

      iter #  15 total cpu time :   410.9 secs   av.it.:  10.4
      thresh= 1.572E-10 alpha_mix =  0.700 |ddv_scf|^2 =  5.185E-19

      iter #  16 total cpu time :   419.7 secs   av.it.:   9.9
      thresh= 7.201E-11 alpha_mix =  0.700 |ddv_scf|^2 =  1.838E-20

      iter #  17 total cpu time :   430.0 secs   av.it.:  10.4
      thresh= 1.356E-11 alpha_mix =  0.700 |ddv_scf|^2 =  5.217E-21

     End of self-consistent calculation

     Convergence has been achieved 


     Representation #  2 mode #   2

     Self-consistent Calculation

      iter #   1 total cpu time :   439.0 secs   av.it.:   8.6
      thresh= 1.000E-02 alpha_mix =  0.700 |ddv_scf|^2 =  1.446E-05

      iter #   2 total cpu time :   450.6 secs   av.it.:  13.8
      thresh= 3.802E-04 alpha_mix =  0.700 |ddv_scf|^2 =  1.058E-05

      iter #   3 total cpu time :   461.4 secs   av.it.:  12.7
      thresh= 3.252E-04 alpha_mix =  0.700 |ddv_scf|^2 =  1.144E-07

      iter #   4 total cpu time :   472.3 secs   av.it.:  12.8
      thresh= 3.382E-05 alpha_mix =  0.700 |ddv_scf|^2 =  2.671E-09

      iter #   5 total cpu time :   483.8 secs   av.it.:  12.9
      thresh= 5.168E-06 alpha_mix =  0.700 |ddv_scf|^2 =  6.763E-11

      iter #   6 total cpu time :   495.6 secs   av.it.:  13.0
      thresh= 8.223E-07 alpha_mix =  0.700 |ddv_scf|^2 =  1.028E-12

      iter #   7 total cpu time :   507.2 secs   av.it.:  13.6
      thresh= 1.014E-07 alpha_mix =  0.700 |ddv_scf|^2 =  5.133E-14

      iter #   8 total cpu time :   520.3 secs   av.it.:  14.2
      thresh= 2.266E-08 alpha_mix =  0.700 |ddv_scf|^2 =  5.842E-16

      iter #   9 total cpu time :   531.9 secs   av.it.:  14.2
      thresh= 2.417E-09 alpha_mix =  0.700 |ddv_scf|^2 =  2.080E-17

      iter #  10 total cpu time :   543.6 secs   av.it.:  14.0
      thresh= 4.560E-10 alpha_mix =  0.700 |ddv_scf|^2 =  2.533E-18

      iter #  11 total cpu time :   554.8 secs   av.it.:  13.5
      thresh= 1.591E-10 alpha_mix =  0.700 |ddv_scf|^2 =  2.249E-19

      iter #  12 total cpu time :   565.8 secs   av.it.:  13.0
      thresh= 4.743E-11 alpha_mix =  0.700 |ddv_scf|^2 =  3.393E-21

     End of self-consistent calculation

     Convergence has been achieved 


     Representation #  3 mode #   3

     Self-consistent Calculation

      iter #   1 total cpu time :   574.0 secs   av.it.:   7.4
      thresh= 1.000E-02 alpha_mix =  0.700 |ddv_scf|^2 =  2.241E-06

      iter #   2 total cpu time :   585.8 secs   av.it.:  14.3
      thresh= 1.497E-04 alpha_mix =  0.700 |ddv_scf|^2 =  9.102E-08

      iter #   3 total cpu time :   597.4 secs   av.it.:  14.0
      thresh= 3.017E-05 alpha_mix =  0.700 |ddv_scf|^2 =  2.318E-10

      iter #   4 total cpu time :   608.9 secs   av.it.:  13.7
      thresh= 1.522E-06 alpha_mix =  0.700 |ddv_scf|^2 =  1.229E-11

      iter #   5 total cpu time :   620.1 secs   av.it.:  13.6
      thresh= 3.505E-07 alpha_mix =  0.700 |ddv_scf|^2 =  3.039E-13

      iter #   6 total cpu time :   631.7 secs   av.it.:  13.8
      thresh= 5.513E-08 alpha_mix =  0.700 |ddv_scf|^2 =  7.512E-15

      iter #   7 total cpu time :   643.3 secs   av.it.:  14.1
      thresh= 8.667E-09 alpha_mix =  0.700 |ddv_scf|^2 =  3.187E-17

      iter #   8 total cpu time :   654.7 secs   av.it.:  13.9
      thresh= 5.646E-10 alpha_mix =  0.700 |ddv_scf|^2 =  7.529E-19

      iter #   9 total cpu time :   666.3 secs   av.it.:  14.1
      thresh= 8.677E-11 alpha_mix =  0.700 |ddv_scf|^2 =  1.630E-20

      iter #  10 total cpu time :   677.8 secs   av.it.:  13.9
      thresh= 1.277E-11 alpha_mix =  0.700 |ddv_scf|^2 =  6.720E-22

     End of self-consistent calculation

     Convergence has been achieved 


     Representation #  4 mode #   4

     Self-consistent Calculation

      iter #   1 total cpu time :   685.9 secs   av.it.:   7.4
      thresh= 1.000E-02 alpha_mix =  0.700 |ddv_scf|^2 =  2.204E-06

      iter #   2 total cpu time :   697.7 secs   av.it.:  14.3
      thresh= 1.485E-04 alpha_mix =  0.700 |ddv_scf|^2 =  8.577E-08

      iter #   3 total cpu time :   709.4 secs   av.it.:  14.0
      thresh= 2.929E-05 alpha_mix =  0.700 |ddv_scf|^2 =  2.294E-10

      iter #   4 total cpu time :   720.8 secs   av.it.:  13.7
      thresh= 1.515E-06 alpha_mix =  0.700 |ddv_scf|^2 =  1.218E-11

      iter #   5 total cpu time :   732.1 secs   av.it.:  13.6
      thresh= 3.491E-07 alpha_mix =  0.700 |ddv_scf|^2 =  3.004E-13

      iter #   6 total cpu time :   743.4 secs   av.it.:  13.7
      thresh= 5.481E-08 alpha_mix =  0.700 |ddv_scf|^2 =  6.707E-15

      iter #   7 total cpu time :   755.1 secs   av.it.:  14.1
      thresh= 8.190E-09 alpha_mix =  0.700 |ddv_scf|^2 =  3.144E-17

      iter #   8 total cpu time :   766.5 secs   av.it.:  13.9
      thresh= 5.607E-10 alpha_mix =  0.700 |ddv_scf|^2 =  6.706E-19

      iter #   9 total cpu time :   778.1 secs   av.it.:  14.1
      thresh= 8.189E-11 alpha_mix =  0.700 |ddv_scf|^2 =  1.431E-20

      iter #  10 total cpu time :   789.6 secs   av.it.:  13.9
      thresh= 1.196E-11 alpha_mix =  0.700 |ddv_scf|^2 =  6.173E-22

     End of self-consistent calculation

     Convergence has been achieved 


     Representation #  5 mode #   5

     Self-consistent Calculation

      iter #   1 total cpu time :   798.0 secs   av.it.:   7.8
      thresh= 1.000E-02 alpha_mix =  0.700 |ddv_scf|^2 =  5.821E-06

      iter #   2 total cpu time :   809.7 secs   av.it.:  14.0
      thresh= 2.413E-04 alpha_mix =  0.700 |ddv_scf|^2 =  1.852E-06

      iter #   3 total cpu time :   820.8 secs   av.it.:  13.1
      thresh= 1.361E-04 alpha_mix =  0.700 |ddv_scf|^2 =  4.065E-09

      iter #   4 total cpu time :   832.3 secs   av.it.:  13.9
      thresh= 6.376E-06 alpha_mix =  0.700 |ddv_scf|^2 =  1.476E-10

      iter #   5 total cpu time :   843.4 secs   av.it.:  13.0
      thresh= 1.215E-06 alpha_mix =  0.700 |ddv_scf|^2 =  1.141E-12

      iter #   6 total cpu time :   854.8 secs   av.it.:  13.7
      thresh= 1.068E-07 alpha_mix =  0.700 |ddv_scf|^2 =  6.938E-15

      iter #   7 total cpu time :   866.1 secs   av.it.:  13.8
      thresh= 8.330E-09 alpha_mix =  0.700 |ddv_scf|^2 =  2.227E-16

      iter #   8 total cpu time :   877.7 secs   av.it.:  13.9
      thresh= 1.492E-09 alpha_mix =  0.700 |ddv_scf|^2 =  3.599E-18

      iter #   9 total cpu time :   889.1 secs   av.it.:  13.7
      thresh= 1.897E-10 alpha_mix =  0.700 |ddv_scf|^2 =  2.135E-19

      iter #  10 total cpu time :   900.5 secs   av.it.:  13.6
      thresh= 4.621E-11 alpha_mix =  0.700 |ddv_scf|^2 =  1.681E-21

     End of self-consistent calculation

     Convergence has been achieved 


     Representation #  6 mode #   6

     Self-consistent Calculation

      iter #   1 total cpu time :   909.1 secs   av.it.:   8.1
      thresh= 1.000E-02 alpha_mix =  0.700 |ddv_scf|^2 =  6.760E-06

      iter #   2 total cpu time :   920.7 secs   av.it.:  14.0
      thresh= 2.600E-04 alpha_mix =  0.700 |ddv_scf|^2 =  2.324E-06

      iter #   3 total cpu time :   931.8 secs   av.it.:  13.0
      thresh= 1.525E-04 alpha_mix =  0.700 |ddv_scf|^2 =  2.767E-09

      iter #   4 total cpu time :   943.4 secs   av.it.:  14.0
      thresh= 5.260E-06 alpha_mix =  0.700 |ddv_scf|^2 =  1.699E-10

      iter #   5 total cpu time :   954.4 secs   av.it.:  13.0
      thresh= 1.303E-06 alpha_mix =  0.700 |ddv_scf|^2 =  1.499E-12

      iter #   6 total cpu time :   965.9 secs   av.it.:  14.0
      thresh= 1.224E-07 alpha_mix =  0.700 |ddv_scf|^2 =  6.116E-15

      iter #   7 total cpu time :   977.4 secs   av.it.:  14.0
      thresh= 7.821E-09 alpha_mix =  0.700 |ddv_scf|^2 =  2.053E-16

      iter #   8 total cpu time :   989.0 secs   av.it.:  14.2
      thresh= 1.433E-09 alpha_mix =  0.700 |ddv_scf|^2 =  3.907E-18

      iter #   9 total cpu time :  1000.6 secs   av.it.:  14.0
      thresh= 1.977E-10 alpha_mix =  0.700 |ddv_scf|^2 =  4.078E-19

      iter #  10 total cpu time :  1012.0 secs   av.it.:  13.7
      thresh= 6.386E-11 alpha_mix =  0.700 |ddv_scf|^2 =  4.111E-20

      iter #  11 total cpu time :  1023.3 secs   av.it.:  13.5
      thresh= 2.028E-11 alpha_mix =  0.700 |ddv_scf|^2 =  3.351E-21

     End of self-consistent calculation

     Convergence has been achieved 
 
     Number of q in the star =    4
     List of q in the star:
          1   0.094619044   0.094619044   0.000000000
          2   0.094619044  -0.094619044   0.000000000
          3  -0.094619044   0.094619044   0.000000000
          4  -0.094619044  -0.094619044   0.000000000

     Diagonalizing the dynamical matrix

     q = (    0.094619044   0.094619044   0.000000000 ) 

 **************************************************************************
     freq (    1) =       0.331862 [THz] =      11.069727 [cm-1]
     freq (    2) =       0.498128 [THz] =      16.615770 [cm-1]
     freq (    3) =       1.098300 [THz] =      36.635344 [cm-1]
     freq (    4) =       1.594727 [THz] =      53.194355 [cm-1]
     freq (    5) =       3.879906 [THz] =     129.419739 [cm-1]
     freq (    6) =       3.933829 [THz] =     131.218423 [cm-1]
 **************************************************************************

     Mode symmetry, C_2v (mm2)  point group:

     freq (  1 -  1) =         11.1  [cm-1]   --> B_1  D_3  S_3      
     freq (  2 -  2) =         16.6  [cm-1]   --> B_2  D_4  S_4      
     freq (  3 -  3) =         36.6  [cm-1]   --> A_1  D_1  S_1      
     freq (  4 -  4) =         53.2  [cm-1]   --> B_1  D_3  S_3      
     freq (  5 -  5) =        129.4  [cm-1]   --> A_2  D_2  S_2      
     freq (  6 -  6) =        131.2  [cm-1]   --> B_2  D_4  S_4      

     Calculation of q =    0.1892381   0.1892381   0.0000000
 
     Parallelization info
     --------------------
     sticks:   dense  smooth     PW     G-vecs:    dense   smooth      PW
     Min         588     292     98                24580     8696    1654
     Max         589     293     99                24583     8699    1655
     Sum        2353    1169    393                98323    34789    6617
 

     Title: 
     default                                                                    


     bravais-lattice index     =            0
     lattice parameter (alat)  =       8.3266  a.u.
     unit-cell volume          =     359.5699 (a.u.)^3
     number of atoms/cell      =            2
     number of atomic types    =            1
     number of electrons       =        28.00
     number of Kohn-Sham states=           18
     kinetic-energy cutoff     =      80.0000  Ry
     charge density cutoff     =     640.0000  Ry
     Exchange-correlation      = PBESOL ( 1  4 10  8 0 0)

     celldm(1)=  11.000107  celldm(2)=   1.000000  celldm(3)=   0.540285
     celldm(4)=   0.000000  celldm(5)=   0.000000  celldm(6)=   0.000000

     crystal axes: (cart. coord. in units of alat)
               a(1) = (  -0.660544   0.660544   0.356882 )  
               a(2) = (   0.660544  -0.660544   0.356882 )  
               a(3) = (   0.660544   0.660544  -0.356882 )  

     reciprocal axes: (cart. coord. in units 2 pi/alat)
               b(1) = (  0.000000  0.756952  1.401025 )  
               b(2) = (  0.756952  0.000000  1.401025 )  
               b(3) = (  0.756952  0.756952  0.000000 )  


     PseudoPot. # 1 for Sn read from file:
     /n/home08/xiey/q-e/pseudo/sn_pbesol_v1.4.uspp.F.UPF
     MD5 check sum: 463fec1d5456f1e96ec1bfcad4b7b038
     Pseudo is Ultrasoft + core correction, Zval = 14.0
     Generated by new atomic code, or converted to UPF format
     Using radial grid of  891 points,  6 beta functions with: 
                l(1) =   0
                l(2) =   0
                l(3) =   1
                l(4) =   1
                l(5) =   2
                l(6) =   2
     Q(r) pseudized with  8 coefficients,  rinner =    1.350   1.350   1.350
                                                       1.350   1.350

     atomic species   valence    mass     pseudopotential
        Sn            14.00   118.71000     Sn( 1.00)

     16 Sym. Ops., with inversion, found



   Cartesian axes

     site n.     atom                  positions (alat units)
         1           Sn  tau(   1) = (   0.0000000   0.0000000   0.0000000  )
         2           Sn  tau(   2) = (   0.6605436   0.0000000   0.1784408  )

     number of k points=  2320  mv smearing, width (Ry)=  0.0100

     Number of k-points >= 100: set verbosity='high' to print them.

     Dense  grid:    98323 G-vectors     FFT dimensions: (  72,  72,  72)

     Smooth grid:    34789 G-vectors     FFT dimensions: (  48,  48,  48)

     Estimated max dynamical RAM per process >      16.89 MB

     Estimated total dynamical RAM >       4.22 GB

     The potential is recalculated from file :
     /n/kozinsky_lab/Users/xiey/Stanene/beta-0/scf/out/_ph0/scf.save/charge-density.dat

     Starting wfcs are   18 atomic wfcs

     Band Structure Calculation
     Davidson diagonalization with overlap

     ethr =  3.57E-11,  avg # of iterations = 17.7

     total cpu time spent up to now is       50.3 secs

     End of band structure calculation

     Number of k-points >= 100: set verbosity='high' to print the bands.

     the Fermi energy is    10.8896 ev

     Writing output data file scf.save/

     default                                                                    

     bravais-lattice index     =            0
     lattice parameter (alat)  =       8.3266  a.u.
     unit-cell volume          =     359.5699 (a.u.)^3
     number of atoms/cell      =            2
     number of atomic types    =            1
     kinetic-energy cut-off    =      80.0000  Ry
     charge density cut-off    =     640.0000  Ry
     convergence threshold     =      1.0E-20
     beta                      =       0.7000
     number of iterations used =            4
     Exchange-correlation      = PBESOL ( 1  4 10  8 0 0)


     celldm(1)=   11.00011  celldm(2)=    1.00000  celldm(3)=    0.54028
     celldm(4)=    0.00000  celldm(5)=    0.00000  celldm(6)=    0.00000

     crystal axes: (cart. coord. in units of alat)
               a(1) = ( -0.6605  0.6605  0.3569 )  
               a(2) = (  0.6605 -0.6605  0.3569 )  
               a(3) = (  0.6605  0.6605 -0.3569 )  

     reciprocal axes: (cart. coord. in units 2 pi/alat)
               b(1) = (  0.0000  0.7570  1.4010 )  
               b(2) = (  0.7570  0.0000  1.4010 )  
               b(3) = (  0.7570  0.7570  0.0000 )  


     Atoms inside the unit cell: 

     Cartesian axes

     site n.  atom      mass           positions (alat units)
        1     Sn 118.7100   tau(    1) = (    0.00000    0.00000    0.00000  )
        2     Sn 118.7100   tau(    2) = (    0.66054    0.00000    0.17844  )

     Computing dynamical matrix for 
                    q = (   0.1892381   0.1892381   0.0000000 )
 
      4 Sym.Ops. (no q -> -q+G )


     G cutoff = 1123.9608  (  24580 G-vectors)     FFT grid: ( 72, 72, 72)
     G cutoff =  561.9804  (   8698 G-vectors)  smooth grid: ( 48, 48, 48)

     number of k points=  2320  mv smearing, width (Ry)=  0.0100

     PseudoPot. # 1 for Sn read from file:
     /n/home08/xiey/q-e/pseudo/sn_pbesol_v1.4.uspp.F.UPF
     MD5 check sum: 463fec1d5456f1e96ec1bfcad4b7b038
     Pseudo is Ultrasoft + core correction, Zval = 14.0
     Generated by new atomic code, or converted to UPF format
     Using radial grid of  891 points,  6 beta functions with: 
                l(1) =   0
                l(2) =   0
                l(3) =   1
                l(4) =   1
                l(5) =   2
                l(6) =   2
     Q(r) pseudized with  8 coefficients,  rinner =    1.350   1.350   1.350
                                                       1.350   1.350

     Mode symmetry, C_2v (mm2)  point group:


     Atomic displacements:
     There are   6 irreducible representations

     Representation     1      1 modes -A_1  D_1  S_1  To be done

     Representation     2      1 modes -A_2  D_2  S_2  To be done

     Representation     3      1 modes -B_1  D_3  S_3  To be done

     Representation     4      1 modes -B_1  D_3  S_3  To be done

     Representation     5      1 modes -B_2  D_4  S_4  To be done

     Representation     6      1 modes -B_2  D_4  S_4  To be done



     Alpha used in Ewald sum =   2.8000
     PHONON       : 17m13.30s CPU    17m43.94s WALL



     Representation #  1 mode #   1

     Self-consistent Calculation

      iter #   1 total cpu time :  1072.8 secs   av.it.:   9.4
      thresh= 1.000E-02 alpha_mix =  0.700 |ddv_scf|^2 =  1.494E-02

      iter #   2 total cpu time :  1083.4 secs   av.it.:  12.3
      thresh= 1.000E-02 alpha_mix =  0.700 |ddv_scf|^2 =  3.284E+00

      iter #   3 total cpu time :  1093.8 secs   av.it.:  12.1
      thresh= 1.000E-02 alpha_mix =  0.700 |ddv_scf|^2 =  1.539E-05

      iter #   4 total cpu time :  1103.7 secs   av.it.:  11.2
      thresh= 3.922E-04 alpha_mix =  0.700 |ddv_scf|^2 =  7.546E-07

      iter #   5 total cpu time :  1113.7 secs   av.it.:  11.4
      thresh= 8.687E-05 alpha_mix =  0.700 |ddv_scf|^2 =  2.365E-09

      iter #   6 total cpu time :  1123.9 secs   av.it.:  11.9
      thresh= 4.863E-06 alpha_mix =  0.700 |ddv_scf|^2 =  1.008E-10

      iter #   7 total cpu time :  1133.7 secs   av.it.:  11.2
      thresh= 1.004E-06 alpha_mix =  0.700 |ddv_scf|^2 =  3.847E-13

      iter #   8 total cpu time :  1144.2 secs   av.it.:  12.4
      thresh= 6.203E-08 alpha_mix =  0.700 |ddv_scf|^2 =  2.872E-14

      iter #   9 total cpu time :  1154.5 secs   av.it.:  12.0
      thresh= 1.695E-08 alpha_mix =  0.700 |ddv_scf|^2 =  2.752E-14

      iter #  10 total cpu time :  1163.0 secs   av.it.:   9.2
      thresh= 1.659E-08 alpha_mix =  0.700 |ddv_scf|^2 =  6.256E-16

      iter #  11 total cpu time :  1173.3 secs   av.it.:  12.0
      thresh= 2.501E-09 alpha_mix =  0.700 |ddv_scf|^2 =  7.089E-18

      iter #  12 total cpu time :  1183.8 secs   av.it.:  12.5
      thresh= 2.662E-10 alpha_mix =  0.700 |ddv_scf|^2 =  1.232E-18

      iter #  13 total cpu time :  1194.0 secs   av.it.:  11.9
      thresh= 1.110E-10 alpha_mix =  0.700 |ddv_scf|^2 =  1.073E-18

      iter #  14 total cpu time :  1203.1 secs   av.it.:  10.2
      thresh= 1.036E-10 alpha_mix =  0.700 |ddv_scf|^2 =  6.911E-21

     End of self-consistent calculation

     Convergence has been achieved 


     Representation #  2 mode #   2

     Self-consistent Calculation

      iter #   1 total cpu time :  1212.2 secs   av.it.:   8.8
      thresh= 1.000E-02 alpha_mix =  0.700 |ddv_scf|^2 =  2.859E-05

      iter #   2 total cpu time :  1223.6 secs   av.it.:  13.6
      thresh= 5.347E-04 alpha_mix =  0.700 |ddv_scf|^2 =  5.257E-05

      iter #   3 total cpu time :  1234.2 secs   av.it.:  12.3
      thresh= 7.251E-04 alpha_mix =  0.700 |ddv_scf|^2 =  2.402E-07

      iter #   4 total cpu time :  1245.3 secs   av.it.:  13.1
      thresh= 4.901E-05 alpha_mix =  0.700 |ddv_scf|^2 =  4.729E-09

      iter #   5 total cpu time :  1256.2 secs   av.it.:  12.8
      thresh= 6.877E-06 alpha_mix =  0.700 |ddv_scf|^2 =  6.307E-11

      iter #   6 total cpu time :  1267.4 secs   av.it.:  13.4
      thresh= 7.942E-07 alpha_mix =  0.700 |ddv_scf|^2 =  1.076E-12

      iter #   7 total cpu time :  1278.7 secs   av.it.:  13.6
      thresh= 1.037E-07 alpha_mix =  0.700 |ddv_scf|^2 =  3.841E-14

      iter #   8 total cpu time :  1290.4 secs   av.it.:  14.3
      thresh= 1.960E-08 alpha_mix =  0.700 |ddv_scf|^2 =  2.982E-15

      iter #   9 total cpu time :  1301.3 secs   av.it.:  13.1
      thresh= 5.461E-09 alpha_mix =  0.700 |ddv_scf|^2 =  3.426E-17

      iter #  10 total cpu time :  1312.8 secs   av.it.:  13.8
      thresh= 5.853E-10 alpha_mix =  0.700 |ddv_scf|^2 =  1.303E-18

      iter #  11 total cpu time :  1324.2 secs   av.it.:  13.7
      thresh= 1.141E-10 alpha_mix =  0.700 |ddv_scf|^2 =  8.210E-20

      iter #  12 total cpu time :  1335.9 secs   av.it.:  14.4
      thresh= 2.865E-11 alpha_mix =  0.700 |ddv_scf|^2 =  4.497E-21

     End of self-consistent calculation

     Convergence has been achieved 


     Representation #  3 mode #   3

     Self-consistent Calculation

      iter #   1 total cpu time :  1344.1 secs   av.it.:   7.5
      thresh= 1.000E-02 alpha_mix =  0.700 |ddv_scf|^2 =  2.627E-06

      iter #   2 total cpu time :  1355.9 secs   av.it.:  14.3
      thresh= 1.621E-04 alpha_mix =  0.700 |ddv_scf|^2 =  1.698E-07

      iter #   3 total cpu time :  1367.4 secs   av.it.:  13.8
      thresh= 4.121E-05 alpha_mix =  0.700 |ddv_scf|^2 =  3.564E-10

      iter #   4 total cpu time :  1379.0 secs   av.it.:  14.0
      thresh= 1.888E-06 alpha_mix =  0.700 |ddv_scf|^2 =  2.552E-11

      iter #   5 total cpu time :  1390.3 secs   av.it.:  13.7
      thresh= 5.052E-07 alpha_mix =  0.700 |ddv_scf|^2 =  6.595E-13

      iter #   6 total cpu time :  1401.8 secs   av.it.:  13.8
      thresh= 8.121E-08 alpha_mix =  0.700 |ddv_scf|^2 =  1.227E-14

      iter #   7 total cpu time :  1413.4 secs   av.it.:  14.1
      thresh= 1.108E-08 alpha_mix =  0.700 |ddv_scf|^2 =  5.615E-17

      iter #   8 total cpu time :  1424.8 secs   av.it.:  13.9
      thresh= 7.493E-10 alpha_mix =  0.700 |ddv_scf|^2 =  1.905E-18

      iter #   9 total cpu time :  1436.4 secs   av.it.:  14.2
      thresh= 1.380E-10 alpha_mix =  0.700 |ddv_scf|^2 =  4.926E-20

      iter #  10 total cpu time :  1447.9 secs   av.it.:  13.8
      thresh= 2.220E-11 alpha_mix =  0.700 |ddv_scf|^2 =  1.462E-21

     End of self-consistent calculation

     Convergence has been achieved 


     Representation #  4 mode #   4

     Self-consistent Calculation

      iter #   1 total cpu time :  1456.1 secs   av.it.:   7.4
      thresh= 1.000E-02 alpha_mix =  0.700 |ddv_scf|^2 =  2.376E-06

      iter #   2 total cpu time :  1467.9 secs   av.it.:  14.3
      thresh= 1.541E-04 alpha_mix =  0.700 |ddv_scf|^2 =  1.222E-07

      iter #   3 total cpu time :  1479.5 secs   av.it.:  13.9
      thresh= 3.496E-05 alpha_mix =  0.700 |ddv_scf|^2 =  3.827E-10

      iter #   4 total cpu time :  1491.1 secs   av.it.:  14.0
      thresh= 1.956E-06 alpha_mix =  0.700 |ddv_scf|^2 =  2.727E-11

      iter #   5 total cpu time :  1502.4 secs   av.it.:  13.6
      thresh= 5.222E-07 alpha_mix =  0.700 |ddv_scf|^2 =  5.370E-13

      iter #   6 total cpu time :  1513.8 secs   av.it.:  13.6
      thresh= 7.328E-08 alpha_mix =  0.700 |ddv_scf|^2 =  9.298E-15

      iter #   7 total cpu time :  1525.4 secs   av.it.:  14.0
      thresh= 9.643E-09 alpha_mix =  0.700 |ddv_scf|^2 =  5.092E-17

      iter #   8 total cpu time :  1536.9 secs   av.it.:  14.0
      thresh= 7.136E-10 alpha_mix =  0.700 |ddv_scf|^2 =  1.353E-18

      iter #   9 total cpu time :  1548.5 secs   av.it.:  14.1
      thresh= 1.163E-10 alpha_mix =  0.700 |ddv_scf|^2 =  2.984E-20

      iter #  10 total cpu time :  1560.0 secs   av.it.:  14.0
      thresh= 1.727E-11 alpha_mix =  0.700 |ddv_scf|^2 =  1.180E-21

     End of self-consistent calculation

     Convergence has been achieved 


     Representation #  5 mode #   5

     Self-consistent Calculation

      iter #   1 total cpu time :  1568.2 secs   av.it.:   7.5
      thresh= 1.000E-02 alpha_mix =  0.700 |ddv_scf|^2 =  3.649E-06

      iter #   2 total cpu time :  1580.0 secs   av.it.:  14.2
      thresh= 1.910E-04 alpha_mix =  0.700 |ddv_scf|^2 =  7.247E-07

      iter #   3 total cpu time :  1591.2 secs   av.it.:  13.4
      thresh= 8.513E-05 alpha_mix =  0.700 |ddv_scf|^2 =  7.689E-09

      iter #   4 total cpu time :  1602.7 secs   av.it.:  13.7
      thresh= 8.769E-06 alpha_mix =  0.700 |ddv_scf|^2 =  9.286E-11

      iter #   5 total cpu time :  1613.8 secs   av.it.:  13.3
      thresh= 9.636E-07 alpha_mix =  0.700 |ddv_scf|^2 =  8.102E-13

      iter #   6 total cpu time :  1625.2 secs   av.it.:  13.7
      thresh= 9.001E-08 alpha_mix =  0.700 |ddv_scf|^2 =  6.294E-15

      iter #   7 total cpu time :  1636.6 secs   av.it.:  13.7
      thresh= 7.933E-09 alpha_mix =  0.700 |ddv_scf|^2 =  1.739E-16

      iter #   8 total cpu time :  1648.1 secs   av.it.:  14.0
      thresh= 1.319E-09 alpha_mix =  0.700 |ddv_scf|^2 =  2.543E-18

      iter #   9 total cpu time :  1659.6 secs   av.it.:  13.8
      thresh= 1.595E-10 alpha_mix =  0.700 |ddv_scf|^2 =  1.754E-19

      iter #  10 total cpu time :  1671.0 secs   av.it.:  13.7
      thresh= 4.188E-11 alpha_mix =  0.700 |ddv_scf|^2 =  1.861E-21

     End of self-consistent calculation

     Convergence has been achieved 


     Representation #  6 mode #   6

     Self-consistent Calculation

      iter #   1 total cpu time :  1679.7 secs   av.it.:   8.2
      thresh= 1.000E-02 alpha_mix =  0.700 |ddv_scf|^2 =  7.489E-06

      iter #   2 total cpu time :  1691.5 secs   av.it.:  14.0
      thresh= 2.737E-04 alpha_mix =  0.700 |ddv_scf|^2 =  2.443E-06

      iter #   3 total cpu time :  1702.5 secs   av.it.:  13.0
      thresh= 1.563E-04 alpha_mix =  0.700 |ddv_scf|^2 =  1.891E-09

      iter #   4 total cpu time :  1714.1 secs   av.it.:  13.9
      thresh= 4.349E-06 alpha_mix =  0.700 |ddv_scf|^2 =  1.343E-10

      iter #   5 total cpu time :  1725.3 secs   av.it.:  13.3
      thresh= 1.159E-06 alpha_mix =  0.700 |ddv_scf|^2 =  1.916E-12

      iter #   6 total cpu time :  1736.9 secs   av.it.:  14.1
      thresh= 1.384E-07 alpha_mix =  0.700 |ddv_scf|^2 =  6.383E-15

      iter #   7 total cpu time :  1748.4 secs   av.it.:  13.8
      thresh= 7.989E-09 alpha_mix =  0.700 |ddv_scf|^2 =  2.879E-16

      iter #   8 total cpu time :  1760.1 secs   av.it.:  14.4
      thresh= 1.697E-09 alpha_mix =  0.700 |ddv_scf|^2 =  3.431E-18

      iter #   9 total cpu time :  1771.6 secs   av.it.:  13.8
      thresh= 1.852E-10 alpha_mix =  0.700 |ddv_scf|^2 =  2.627E-19

      iter #  10 total cpu time :  1783.2 secs   av.it.:  13.9
      thresh= 5.125E-11 alpha_mix =  0.700 |ddv_scf|^2 =  2.209E-20

      iter #  11 total cpu time :  1794.6 secs   av.it.:  13.7
      thresh= 1.486E-11 alpha_mix =  0.700 |ddv_scf|^2 =  2.800E-21

     End of self-consistent calculation

     Convergence has been achieved 
 
     Number of q in the star =    4
     List of q in the star:
          1   0.189238088   0.189238088   0.000000000
          2   0.189238088  -0.189238088   0.000000000
          3  -0.189238088   0.189238088   0.000000000
          4  -0.189238088  -0.189238088   0.000000000

     Diagonalizing the dynamical matrix

     q = (    0.189238088   0.189238088   0.000000000 ) 

 **************************************************************************
     freq (    1) =       0.535541 [THz] =      17.863721 [cm-1]
     freq (    2) =       0.748569 [THz] =      24.969577 [cm-1]
     freq (    3) =       2.040049 [THz] =      68.048715 [cm-1]
     freq (    4) =       2.082178 [THz] =      69.453978 [cm-1]
     freq (    5) =       3.697816 [THz] =     123.345880 [cm-1]
     freq (    6) =       3.704969 [THz] =     123.584477 [cm-1]
 **************************************************************************

     Mode symmetry, C_2v (mm2)  point group:

     freq (  1 -  1) =         17.9  [cm-1]   --> B_1  D_3  S_3      
     freq (  2 -  2) =         25.0  [cm-1]   --> B_2  D_4  S_4      
     freq (  3 -  3) =         68.0  [cm-1]   --> A_1  D_1  S_1      
     freq (  4 -  4) =         69.5  [cm-1]   --> B_1  D_3  S_3      
     freq (  5 -  5) =        123.3  [cm-1]   --> A_2  D_2  S_2      
     freq (  6 -  6) =        123.6  [cm-1]   --> B_2  D_4  S_4      

     Calculation of q =    0.2838571   0.2838571   0.0000000
 
     Parallelization info
     --------------------
     sticks:   dense  smooth     PW     G-vecs:    dense   smooth      PW
     Min         588     292     98                24580     8696    1654
     Max         589     293     99                24583     8699    1655
     Sum        2353    1169    393                98323    34789    6617
 

     Title: 
     default                                                                    


     bravais-lattice index     =            0
     lattice parameter (alat)  =       8.3266  a.u.
     unit-cell volume          =     359.5699 (a.u.)^3
     number of atoms/cell      =            2
     number of atomic types    =            1
     number of electrons       =        28.00
     number of Kohn-Sham states=           18
     kinetic-energy cutoff     =      80.0000  Ry
     charge density cutoff     =     640.0000  Ry
     Exchange-correlation      = PBESOL ( 1  4 10  8 0 0)

     celldm(1)=  11.000107  celldm(2)=   1.000000  celldm(3)=   0.540285
     celldm(4)=   0.000000  celldm(5)=   0.000000  celldm(6)=   0.000000

     crystal axes: (cart. coord. in units of alat)
               a(1) = (  -0.660544   0.660544   0.356882 )  
               a(2) = (   0.660544  -0.660544   0.356882 )  
               a(3) = (   0.660544   0.660544  -0.356882 )  

     reciprocal axes: (cart. coord. in units 2 pi/alat)
               b(1) = (  0.000000  0.756952  1.401025 )  
               b(2) = (  0.756952  0.000000  1.401025 )  
               b(3) = (  0.756952  0.756952  0.000000 )  


     PseudoPot. # 1 for Sn read from file:
     /n/home08/xiey/q-e/pseudo/sn_pbesol_v1.4.uspp.F.UPF
     MD5 check sum: 463fec1d5456f1e96ec1bfcad4b7b038
     Pseudo is Ultrasoft + core correction, Zval = 14.0
     Generated by new atomic code, or converted to UPF format
     Using radial grid of  891 points,  6 beta functions with: 
                l(1) =   0
                l(2) =   0
                l(3) =   1
                l(4) =   1
                l(5) =   2
                l(6) =   2
     Q(r) pseudized with  8 coefficients,  rinner =    1.350   1.350   1.350
                                                       1.350   1.350

     atomic species   valence    mass     pseudopotential
        Sn            14.00   118.71000     Sn( 1.00)

     16 Sym. Ops., with inversion, found



   Cartesian axes

     site n.     atom                  positions (alat units)
         1           Sn  tau(   1) = (   0.0000000   0.0000000   0.0000000  )
         2           Sn  tau(   2) = (   0.6605436   0.0000000   0.1784408  )

     number of k points=  2320  mv smearing, width (Ry)=  0.0100

     Number of k-points >= 100: set verbosity='high' to print them.

     Dense  grid:    98323 G-vectors     FFT dimensions: (  72,  72,  72)

     Smooth grid:    34789 G-vectors     FFT dimensions: (  48,  48,  48)

     Estimated max dynamical RAM per process >      16.90 MB

     Estimated total dynamical RAM >       4.22 GB

     The potential is recalculated from file :
     /n/kozinsky_lab/Users/xiey/Stanene/beta-0/scf/out/_ph0/scf.save/charge-density.dat

     Starting wfcs are   18 atomic wfcs

     Band Structure Calculation
     Davidson diagonalization with overlap

     ethr =  3.57E-11,  avg # of iterations = 17.7

     total cpu time spent up to now is       76.8 secs

     End of band structure calculation

     Number of k-points >= 100: set verbosity='high' to print the bands.

     the Fermi energy is    10.8896 ev

     Writing output data file scf.save/

     default                                                                    

     bravais-lattice index     =            0
     lattice parameter (alat)  =       8.3266  a.u.
     unit-cell volume          =     359.5699 (a.u.)^3
     number of atoms/cell      =            2
     number of atomic types    =            1
     kinetic-energy cut-off    =      80.0000  Ry
     charge density cut-off    =     640.0000  Ry
     convergence threshold     =      1.0E-20
     beta                      =       0.7000
     number of iterations used =            4
     Exchange-correlation      = PBESOL ( 1  4 10  8 0 0)


     celldm(1)=   11.00011  celldm(2)=    1.00000  celldm(3)=    0.54028
     celldm(4)=    0.00000  celldm(5)=    0.00000  celldm(6)=    0.00000

     crystal axes: (cart. coord. in units of alat)
               a(1) = ( -0.6605  0.6605  0.3569 )  
               a(2) = (  0.6605 -0.6605  0.3569 )  
               a(3) = (  0.6605  0.6605 -0.3569 )  

     reciprocal axes: (cart. coord. in units 2 pi/alat)
               b(1) = (  0.0000  0.7570  1.4010 )  
               b(2) = (  0.7570  0.0000  1.4010 )  
               b(3) = (  0.7570  0.7570  0.0000 )  


     Atoms inside the unit cell: 

     Cartesian axes

     site n.  atom      mass           positions (alat units)
        1     Sn 118.7100   tau(    1) = (    0.00000    0.00000    0.00000  )
        2     Sn 118.7100   tau(    2) = (    0.66054    0.00000    0.17844  )

     Computing dynamical matrix for 
                    q = (   0.2838571   0.2838571   0.0000000 )
 
      4 Sym.Ops. (no q -> -q+G )


     G cutoff = 1123.9608  (  24580 G-vectors)     FFT grid: ( 72, 72, 72)
     G cutoff =  561.9804  (   8698 G-vectors)  smooth grid: ( 48, 48, 48)

     number of k points=  2320  mv smearing, width (Ry)=  0.0100

     PseudoPot. # 1 for Sn read from file:
     /n/home08/xiey/q-e/pseudo/sn_pbesol_v1.4.uspp.F.UPF
     MD5 check sum: 463fec1d5456f1e96ec1bfcad4b7b038
     Pseudo is Ultrasoft + core correction, Zval = 14.0
     Generated by new atomic code, or converted to UPF format
     Using radial grid of  891 points,  6 beta functions with: 
                l(1) =   0
                l(2) =   0
                l(3) =   1
                l(4) =   1
                l(5) =   2
                l(6) =   2
     Q(r) pseudized with  8 coefficients,  rinner =    1.350   1.350   1.350
                                                       1.350   1.350

     Mode symmetry, C_2v (mm2)  point group:


     Atomic displacements:
     There are   6 irreducible representations

     Representation     1      1 modes -A_1  D_1  S_1  To be done

     Representation     2      1 modes -A_2  D_2  S_2  To be done

     Representation     3      1 modes -B_1  D_3  S_3  To be done

     Representation     4      1 modes -B_1  D_3  S_3  To be done

     Representation     5      1 modes -B_2  D_4  S_4  To be done

     Representation     6      1 modes -B_2  D_4  S_4  To be done



     Alpha used in Ewald sum =   2.8000
     PHONON       : 29m48.02s CPU    30m35.28s WALL



     Representation #  1 mode #   1

     Self-consistent Calculation

      iter #   1 total cpu time :  1844.1 secs   av.it.:   9.3
      thresh= 1.000E-02 alpha_mix =  0.700 |ddv_scf|^2 =  1.426E-03

      iter #   2 total cpu time :  1854.8 secs   av.it.:  12.5
      thresh= 3.777E-03 alpha_mix =  0.700 |ddv_scf|^2 =  6.201E-02

      iter #   3 total cpu time :  1864.4 secs   av.it.:  10.6
      thresh= 1.000E-02 alpha_mix =  0.700 |ddv_scf|^2 =  6.781E-07

      iter #   4 total cpu time :  1875.8 secs   av.it.:  13.4
      thresh= 8.235E-05 alpha_mix =  0.700 |ddv_scf|^2 =  2.279E-07

      iter #   5 total cpu time :  1886.4 secs   av.it.:  12.3
      thresh= 4.774E-05 alpha_mix =  0.700 |ddv_scf|^2 =  2.773E-10

      iter #   6 total cpu time :  1897.5 secs   av.it.:  13.2
      thresh= 1.665E-06 alpha_mix =  0.700 |ddv_scf|^2 =  2.850E-11

      iter #   7 total cpu time :  1907.9 secs   av.it.:  12.1
      thresh= 5.339E-07 alpha_mix =  0.700 |ddv_scf|^2 =  7.418E-14

      iter #   8 total cpu time :  1918.9 secs   av.it.:  13.0
      thresh= 2.724E-08 alpha_mix =  0.700 |ddv_scf|^2 =  1.511E-15

      iter #   9 total cpu time :  1929.6 secs   av.it.:  12.5
      thresh= 3.888E-09 alpha_mix =  0.700 |ddv_scf|^2 =  3.113E-17

      iter #  10 total cpu time :  1941.4 secs   av.it.:  14.4
      thresh= 5.579E-10 alpha_mix =  0.700 |ddv_scf|^2 =  4.715E-17

      iter #  11 total cpu time :  1951.8 secs   av.it.:  11.8
      thresh= 6.867E-10 alpha_mix =  0.700 |ddv_scf|^2 =  1.324E-16

      iter #  12 total cpu time :  1961.7 secs   av.it.:  11.2
      thresh= 1.151E-09 alpha_mix =  0.700 |ddv_scf|^2 =  8.355E-18

      iter #  13 total cpu time :  1971.6 secs   av.it.:  11.3
      thresh= 2.891E-10 alpha_mix =  0.700 |ddv_scf|^2 =  3.311E-20

      iter #  14 total cpu time :  1982.8 secs   av.it.:  13.3
      thresh= 1.820E-11 alpha_mix =  0.700 |ddv_scf|^2 =  2.247E-21

     End of self-consistent calculation

     Convergence has been achieved 


     Representation #  2 mode #   2

     Self-consistent Calculation

      iter #   1 total cpu time :  1992.0 secs   av.it.:   9.0
      thresh= 1.000E-02 alpha_mix =  0.700 |ddv_scf|^2 =  7.647E-05

      iter #   2 total cpu time :  2003.2 secs   av.it.:  13.2
      thresh= 8.745E-04 alpha_mix =  0.700 |ddv_scf|^2 =  3.589E-04

      iter #   3 total cpu time :  2013.5 secs   av.it.:  11.6
      thresh= 1.894E-03 alpha_mix =  0.700 |ddv_scf|^2 =  3.124E-07

      iter #   4 total cpu time :  2024.8 secs   av.it.:  13.5
      thresh= 5.590E-05 alpha_mix =  0.700 |ddv_scf|^2 =  1.122E-08

      iter #   5 total cpu time :  2035.6 secs   av.it.:  12.5
      thresh= 1.059E-05 alpha_mix =  0.700 |ddv_scf|^2 =  6.253E-11

      iter #   6 total cpu time :  2047.3 secs   av.it.:  14.0
      thresh= 7.908E-07 alpha_mix =  0.700 |ddv_scf|^2 =  3.899E-12

      iter #   7 total cpu time :  2058.2 secs   av.it.:  12.9
      thresh= 1.974E-07 alpha_mix =  0.700 |ddv_scf|^2 =  4.719E-14

      iter #   8 total cpu time :  2069.9 secs   av.it.:  14.1
      thresh= 2.172E-08 alpha_mix =  0.700 |ddv_scf|^2 =  2.416E-15

      iter #   9 total cpu time :  2081.6 secs   av.it.:  14.1
      thresh= 4.916E-09 alpha_mix =  0.700 |ddv_scf|^2 =  1.973E-16

      iter #  10 total cpu time :  2092.3 secs   av.it.:  12.6
      thresh= 1.405E-09 alpha_mix =  0.700 |ddv_scf|^2 =  1.697E-18

      iter #  11 total cpu time :  2103.9 secs   av.it.:  13.9
      thresh= 1.303E-10 alpha_mix =  0.700 |ddv_scf|^2 =  6.723E-20

      iter #  12 total cpu time :  2115.1 secs   av.it.:  13.2
      thresh= 2.593E-11 alpha_mix =  0.700 |ddv_scf|^2 =  5.580E-20

      iter #  13 total cpu time :  2125.7 secs   av.it.:  12.2
      thresh= 2.362E-11 alpha_mix =  0.700 |ddv_scf|^2 =  5.954E-22

     End of self-consistent calculation

     Convergence has been achieved 


     Representation #  3 mode #   3

     Self-consistent Calculation

      iter #   1 total cpu time :  2133.9 secs   av.it.:   7.5
      thresh= 1.000E-02 alpha_mix =  0.700 |ddv_scf|^2 =  3.382E-06

      iter #   2 total cpu time :  2145.8 secs   av.it.:  14.2
      thresh= 1.839E-04 alpha_mix =  0.700 |ddv_scf|^2 =  3.735E-07

      iter #   3 total cpu time :  2157.3 secs   av.it.:  13.5
      thresh= 6.111E-05 alpha_mix =  0.700 |ddv_scf|^2 =  5.842E-10

      iter #   4 total cpu time :  2169.0 secs   av.it.:  14.1
      thresh= 2.417E-06 alpha_mix =  0.700 |ddv_scf|^2 =  4.030E-11

      iter #   5 total cpu time :  2180.4 secs   av.it.:  13.6
      thresh= 6.348E-07 alpha_mix =  0.700 |ddv_scf|^2 =  1.159E-12

      iter #   6 total cpu time :  2192.0 secs   av.it.:  13.9
      thresh= 1.077E-07 alpha_mix =  0.700 |ddv_scf|^2 =  1.236E-14

      iter #   7 total cpu time :  2203.5 secs   av.it.:  13.8
      thresh= 1.112E-08 alpha_mix =  0.700 |ddv_scf|^2 =  1.928E-16

      iter #   8 total cpu time :  2215.0 secs   av.it.:  14.0
      thresh= 1.389E-09 alpha_mix =  0.700 |ddv_scf|^2 =  3.362E-18

      iter #   9 total cpu time :  2226.7 secs   av.it.:  14.2
      thresh= 1.834E-10 alpha_mix =  0.700 |ddv_scf|^2 =  1.640E-19

      iter #  10 total cpu time :  2238.2 secs   av.it.:  13.9
      thresh= 4.050E-11 alpha_mix =  0.700 |ddv_scf|^2 =  3.247E-21

     End of self-consistent calculation

     Convergence has been achieved 


     Representation #  4 mode #   4

     Self-consistent Calculation

      iter #   1 total cpu time :  2246.4 secs   av.it.:   7.5
      thresh= 1.000E-02 alpha_mix =  0.700 |ddv_scf|^2 =  2.590E-06

      iter #   2 total cpu time :  2258.4 secs   av.it.:  14.3
      thresh= 1.609E-04 alpha_mix =  0.700 |ddv_scf|^2 =  1.826E-07

      iter #   3 total cpu time :  2270.0 secs   av.it.:  13.8
      thresh= 4.273E-05 alpha_mix =  0.700 |ddv_scf|^2 =  9.667E-10

      iter #   4 total cpu time :  2281.7 secs   av.it.:  14.0
      thresh= 3.109E-06 alpha_mix =  0.700 |ddv_scf|^2 =  4.392E-11

      iter #   5 total cpu time :  2293.0 secs   av.it.:  13.5
      thresh= 6.627E-07 alpha_mix =  0.700 |ddv_scf|^2 =  7.452E-13

      iter #   6 total cpu time :  2304.4 secs   av.it.:  13.7
      thresh= 8.633E-08 alpha_mix =  0.700 |ddv_scf|^2 =  8.644E-15

      iter #   7 total cpu time :  2315.9 secs   av.it.:  13.7
      thresh= 9.298E-09 alpha_mix =  0.700 |ddv_scf|^2 =  9.337E-17

      iter #   8 total cpu time :  2327.6 secs   av.it.:  14.2
      thresh= 9.663E-10 alpha_mix =  0.700 |ddv_scf|^2 =  2.168E-18

      iter #   9 total cpu time :  2339.3 secs   av.it.:  14.2
      thresh= 1.473E-10 alpha_mix =  0.700 |ddv_scf|^2 =  4.632E-20

      iter #  10 total cpu time :  2350.8 secs   av.it.:  13.8
      thresh= 2.152E-11 alpha_mix =  0.700 |ddv_scf|^2 =  1.529E-21

     End of self-consistent calculation

     Convergence has been achieved 


[...]
      thresh= 1.013E-05 alpha_mix =  0.700 |ddv_scf|^2 =  1.106E-10

      iter #   6 total cpu time :139157.8 secs   av.it.:  14.1
      thresh= 1.052E-06 alpha_mix =  0.700 |ddv_scf|^2 =  7.533E-13

      iter #   7 total cpu time :139182.9 secs   av.it.:  15.3
      thresh= 8.680E-08 alpha_mix =  0.700 |ddv_scf|^2 =  4.449E-14

      iter #   8 total cpu time :139208.5 secs   av.it.:  15.5
      thresh= 2.109E-08 alpha_mix =  0.700 |ddv_scf|^2 =  6.893E-15

      iter #   9 total cpu time :139233.7 secs   av.it.:  15.2
      thresh= 8.303E-09 alpha_mix =  0.700 |ddv_scf|^2 =  1.231E-14

      iter #  10 total cpu time :139255.9 secs   av.it.:  12.8
      thresh= 1.110E-08 alpha_mix =  0.700 |ddv_scf|^2 =  5.613E-17

      iter #  11 total cpu time :139281.1 secs   av.it.:  15.3
      thresh= 7.492E-10 alpha_mix =  0.700 |ddv_scf|^2 =  5.978E-17

      iter #  12 total cpu time :139303.7 secs   av.it.:  13.0
      thresh= 7.732E-10 alpha_mix =  0.700 |ddv_scf|^2 =  2.612E-18

      iter #  13 total cpu time :139327.2 secs   av.it.:  13.8
      thresh= 1.616E-10 alpha_mix =  0.700 |ddv_scf|^2 =  1.217E-19

      iter #  14 total cpu time :139352.1 secs   av.it.:  14.8
      thresh= 3.488E-11 alpha_mix =  0.700 |ddv_scf|^2 =  1.132E-20

      iter #  15 total cpu time :139376.8 secs   av.it.:  14.9
      thresh= 1.064E-11 alpha_mix =  0.700 |ddv_scf|^2 =  6.769E-22

     End of self-consistent calculation

     Convergence has been achieved 
 
     Number of q in the star =    4
     List of q in the star:
          1  -0.662333308  -0.094619044   0.000000000
          2  -0.094619044   0.662333308   0.000000000
          3   0.094619044  -0.662333308   0.000000000
          4  -0.094619044  -0.662333308   0.000000000

     Diagonalizing the dynamical matrix

     q = (   -0.662333308  -0.094619044   0.000000000 ) 

 **************************************************************************
     freq (    1) =       0.828513 [THz] =      27.636203 [cm-1]
     freq (    2) =       0.828513 [THz] =      27.636203 [cm-1]
     freq (    3) =       1.482936 [THz] =      49.465415 [cm-1]
     freq (    4) =       1.482936 [THz] =      49.465415 [cm-1]
     freq (    5) =       4.242515 [THz] =     141.515073 [cm-1]
     freq (    6) =       4.242515 [THz] =     141.515073 [cm-1]
 **************************************************************************

     Calculation of q =   -0.7569524  -0.7569524  -1.4010252
 
     Parallelization info
     --------------------
     sticks:   dense  smooth     PW     G-vecs:    dense   smooth      PW
     Min         588     292    122                24580     8696    2362
     Max         589     293    124                24583     8699    2363
     Sum        2353    1169    491                98323    34789    9451
 

     Title: 
     default                                                                    


     bravais-lattice index     =            0
     lattice parameter (alat)  =       8.3266  a.u.
     unit-cell volume          =     359.5699 (a.u.)^3
     number of atoms/cell      =            2
     number of atomic types    =            1
     number of electrons       =        28.00
     number of Kohn-Sham states=           18
     kinetic-energy cutoff     =      80.0000  Ry
     charge density cutoff     =     640.0000  Ry
     Exchange-correlation      = PBESOL ( 1  4 10  8 0 0)

     celldm(1)=  11.000107  celldm(2)=   1.000000  celldm(3)=   0.540285
     celldm(4)=   0.000000  celldm(5)=   0.000000  celldm(6)=   0.000000

     crystal axes: (cart. coord. in units of alat)
               a(1) = (  -0.660544   0.660544   0.356882 )  
               a(2) = (   0.660544  -0.660544   0.356882 )  
               a(3) = (   0.660544   0.660544  -0.356882 )  

     reciprocal axes: (cart. coord. in units 2 pi/alat)
               b(1) = (  0.000000  0.756952  1.401025 )  
               b(2) = (  0.756952  0.000000  1.401025 )  
               b(3) = (  0.756952  0.756952  0.000000 )  


     PseudoPot. # 1 for Sn read from file:
     /n/home08/xiey/q-e/pseudo/sn_pbesol_v1.4.uspp.F.UPF
     MD5 check sum: 463fec1d5456f1e96ec1bfcad4b7b038
     Pseudo is Ultrasoft + core correction, Zval = 14.0
     Generated by new atomic code, or converted to UPF format
     Using radial grid of  891 points,  6 beta functions with: 
                l(1) =   0
                l(2) =   0
                l(3) =   1
                l(4) =   1
                l(5) =   2
                l(6) =   2
     Q(r) pseudized with  8 coefficients,  rinner =    1.350   1.350   1.350
                                                       1.350   1.350

     atomic species   valence    mass     pseudopotential
        Sn            14.00   118.71000     Sn( 1.00)

     16 Sym. Ops., with inversion, found



   Cartesian axes

     site n.     atom                  positions (alat units)
         1           Sn  tau(   1) = (   0.0000000   0.0000000   0.0000000  )
         2           Sn  tau(   2) = (   0.6605436   0.0000000   0.1784408  )

     number of k points=   698  mv smearing, width (Ry)=  0.0100

     Number of k-points >= 100: set verbosity='high' to print them.

     Dense  grid:    98323 G-vectors     FFT dimensions: (  72,  72,  72)

     Smooth grid:    34789 G-vectors     FFT dimensions: (  48,  48,  48)

     Estimated max dynamical RAM per process >      17.01 MB

     Estimated total dynamical RAM >       4.25 GB

     The potential is recalculated from file :
     /n/kozinsky_lab/Users/xiey/Stanene/beta-0/scf/out/_ph0/scf.save/charge-density.dat

     Starting wfcs are   18 atomic wfcs

     Band Structure Calculation
     Davidson diagonalization with overlap

     ethr =  3.57E-11,  avg # of iterations = 17.5

     total cpu time spent up to now is     2965.7 secs

     End of band structure calculation

     Number of k-points >= 100: set verbosity='high' to print the bands.

     the Fermi energy is    10.8896 ev

     Writing output data file scf.save/

     default                                                                    

     bravais-lattice index     =            0
     lattice parameter (alat)  =       8.3266  a.u.
     unit-cell volume          =     359.5699 (a.u.)^3
     number of atoms/cell      =            2
     number of atomic types    =            1
     kinetic-energy cut-off    =      80.0000  Ry
     charge density cut-off    =     640.0000  Ry
     convergence threshold     =      1.0E-20
     beta                      =       0.7000
     number of iterations used =            4
     Exchange-correlation      = PBESOL ( 1  4 10  8 0 0)


     celldm(1)=   11.00011  celldm(2)=    1.00000  celldm(3)=    0.54028
     celldm(4)=    0.00000  celldm(5)=    0.00000  celldm(6)=    0.00000

     crystal axes: (cart. coord. in units of alat)
               a(1) = ( -0.6605  0.6605  0.3569 )  
               a(2) = (  0.6605 -0.6605  0.3569 )  
               a(3) = (  0.6605  0.6605 -0.3569 )  

     reciprocal axes: (cart. coord. in units 2 pi/alat)
               b(1) = (  0.0000  0.7570  1.4010 )  
               b(2) = (  0.7570  0.0000  1.4010 )  
               b(3) = (  0.7570  0.7570  0.0000 )  


     Atoms inside the unit cell: 

     Cartesian axes

     site n.  atom      mass           positions (alat units)
        1     Sn 118.7100   tau(    1) = (    0.00000    0.00000    0.00000  )
        2     Sn 118.7100   tau(    2) = (    0.66054    0.00000    0.17844  )

     Computing dynamical matrix for 
                    q = (  -0.7569524  -0.7569524  -1.4010252 )
 
     17 Sym.Ops. (with q -> -q+G )


     G cutoff = 1123.9608  (  24580 G-vectors)     FFT grid: ( 72, 72, 72)
     G cutoff =  561.9804  (   8698 G-vectors)  smooth grid: ( 48, 48, 48)

     number of k points=   698  mv smearing, width (Ry)=  0.0100

     PseudoPot. # 1 for Sn read from file:
     /n/home08/xiey/q-e/pseudo/sn_pbesol_v1.4.uspp.F.UPF
     MD5 check sum: 463fec1d5456f1e96ec1bfcad4b7b038
     Pseudo is Ultrasoft + core correction, Zval = 14.0
     Generated by new atomic code, or converted to UPF format
     Using radial grid of  891 points,  6 beta functions with: 
                l(1) =   0
                l(2) =   0
                l(3) =   1
                l(4) =   1
                l(5) =   2
                l(6) =   2
     Q(r) pseudized with  8 coefficients,  rinner =    1.350   1.350   1.350
                                                       1.350   1.350


     Atomic displacements:
     There are   3 irreducible representations

     Representation     1      2 modes -  To be done

     Representation     2      2 modes -  To be done

     Representation     3      2 modes -  To be done



     Alpha used in Ewald sum =   2.8000
     PHONON       :     1d   14h 1m CPU        1d   14h43m WALL



     Representation #  1 modes #   1  2

     Self-consistent Calculation

      iter #   1 total cpu time :139405.6 secs   av.it.:   9.2
      thresh= 1.000E-02 alpha_mix =  0.700 |ddv_scf|^2 =  1.682E-05

      iter #   2 total cpu time :139414.8 secs   av.it.:  14.6
      thresh= 4.101E-04 alpha_mix =  0.700 |ddv_scf|^2 =  3.482E-05

      iter #   3 total cpu time :139423.4 secs   av.it.:  13.1
      thresh= 5.901E-04 alpha_mix =  0.700 |ddv_scf|^2 =  1.032E-08

      iter #   4 total cpu time :139431.9 secs   av.it.:  12.6
      thresh= 1.016E-05 alpha_mix =  0.700 |ddv_scf|^2 =  2.277E-11

      iter #   5 total cpu time :139440.6 secs   av.it.:  13.6
      thresh= 4.772E-07 alpha_mix =  0.700 |ddv_scf|^2 =  3.138E-13

      iter #   6 total cpu time :139449.8 secs   av.it.:  14.9
      thresh= 5.602E-08 alpha_mix =  0.700 |ddv_scf|^2 =  1.710E-15

      iter #   7 total cpu time :139459.1 secs   av.it.:  15.1
      thresh= 4.135E-09 alpha_mix =  0.700 |ddv_scf|^2 =  1.502E-17

      iter #   8 total cpu time :139468.4 secs   av.it.:  15.2
      thresh= 3.876E-10 alpha_mix =  0.700 |ddv_scf|^2 =  2.226E-19

      iter #   9 total cpu time :139477.3 secs   av.it.:  14.0
      thresh= 4.718E-11 alpha_mix =  0.700 |ddv_scf|^2 =  4.379E-21

     End of self-consistent calculation

     Convergence has been achieved 


     Representation #  2 modes #   3  4

     Self-consistent Calculation

      iter #   1 total cpu time :139484.4 secs   av.it.:   7.3
      thresh= 1.000E-02 alpha_mix =  0.700 |ddv_scf|^2 =  4.391E-07

      iter #   2 total cpu time :139493.8 secs   av.it.:  15.4
      thresh= 6.626E-05 alpha_mix =  0.700 |ddv_scf|^2 =  8.486E-09

      iter #   3 total cpu time :139503.2 secs   av.it.:  15.3
      thresh= 9.212E-06 alpha_mix =  0.700 |ddv_scf|^2 =  2.185E-11

      iter #   4 total cpu time :139512.4 secs   av.it.:  14.9
      thresh= 4.674E-07 alpha_mix =  0.700 |ddv_scf|^2 =  1.851E-13

      iter #   5 total cpu time :139521.7 secs   av.it.:  15.1
      thresh= 4.303E-08 alpha_mix =  0.700 |ddv_scf|^2 =  5.747E-16

      iter #   6 total cpu time :139530.8 secs   av.it.:  14.8
      thresh= 2.397E-09 alpha_mix =  0.700 |ddv_scf|^2 =  1.642E-17

      iter #   7 total cpu time :139540.0 secs   av.it.:  14.9
      thresh= 4.052E-10 alpha_mix =  0.700 |ddv_scf|^2 =  3.149E-20

      iter #   8 total cpu time :139549.2 secs   av.it.:  15.0
      thresh= 1.775E-11 alpha_mix =  0.700 |ddv_scf|^2 =  1.402E-21

     End of self-consistent calculation

     Convergence has been achieved 


     Representation #  3 modes #   5  6

     Self-consistent Calculation

      iter #   1 total cpu time :139556.4 secs   av.it.:   7.3
      thresh= 1.000E-02 alpha_mix =  0.700 |ddv_scf|^2 =  5.669E-07

      iter #   2 total cpu time :139565.7 secs   av.it.:  15.2
      thresh= 7.529E-05 alpha_mix =  0.700 |ddv_scf|^2 =  2.659E-08

      iter #   3 total cpu time :139574.9 secs   av.it.:  14.9
      thresh= 1.631E-05 alpha_mix =  0.700 |ddv_scf|^2 =  3.696E-09

      iter #   4 total cpu time :139583.4 secs   av.it.:  12.8
      thresh= 6.080E-06 alpha_mix =  0.700 |ddv_scf|^2 =  3.218E-10

      iter #   5 total cpu time :139591.9 secs   av.it.:  13.0
      thresh= 1.794E-06 alpha_mix =  0.700 |ddv_scf|^2 =  1.689E-12

      iter #   6 total cpu time :139601.1 secs   av.it.:  15.0
      thresh= 1.300E-07 alpha_mix =  0.700 |ddv_scf|^2 =  2.429E-13

      iter #   7 total cpu time :139610.0 secs   av.it.:  14.5
      thresh= 4.929E-08 alpha_mix =  0.700 |ddv_scf|^2 =  2.610E-15

      iter #   8 total cpu time :139619.1 secs   av.it.:  14.9
      thresh= 5.109E-09 alpha_mix =  0.700 |ddv_scf|^2 =  3.263E-17

      iter #   9 total cpu time :139628.2 secs   av.it.:  14.7
      thresh= 5.712E-10 alpha_mix =  0.700 |ddv_scf|^2 =  1.805E-18

      iter #  10 total cpu time :139637.3 secs   av.it.:  14.7
      thresh= 1.344E-10 alpha_mix =  0.700 |ddv_scf|^2 =  4.675E-20

      iter #  11 total cpu time :139646.3 secs   av.it.:  14.6
      thresh= 2.162E-11 alpha_mix =  0.700 |ddv_scf|^2 =  2.219E-21

     End of self-consistent calculation

     Convergence has been achieved 
 
     Number of q in the star =    1
     List of q in the star:
          1  -0.756952352  -0.756952352  -1.401025213

     Diagonalizing the dynamical matrix

     q = (   -0.756952352  -0.756952352  -1.401025213 ) 

 **************************************************************************
     freq (    1) =       0.648339 [THz] =      21.626254 [cm-1]
     freq (    2) =       0.648339 [THz] =      21.626254 [cm-1]
     freq (    3) =       1.279501 [THz] =      42.679559 [cm-1]
     freq (    4) =       1.279501 [THz] =      42.679559 [cm-1]
     freq (    5) =       4.097122 [THz] =     136.665263 [cm-1]
     freq (    6) =       4.097122 [THz] =     136.665263 [cm-1]
 **************************************************************************
 
     init_run     :     34.64s CPU     36.07s WALL (      58 calls)
     electrons    :   2781.31s CPU   2819.64s WALL (      58 calls)

     Called by init_run:
     wfcinit      :      0.01s CPU      0.21s WALL (      58 calls)
     potinit      :     13.74s CPU     14.82s WALL (      58 calls)
     hinit0       :      9.69s CPU      9.75s WALL (      58 calls)

     Called by electrons:
     c_bands      :   2780.82s CPU   2819.08s WALL (      58 calls)
     v_of_rho     :      3.39s CPU      3.42s WALL (      59 calls)
     newd         :      8.12s CPU      8.16s WALL (      59 calls)

     Called by c_bands:
     init_us_2    :     82.39s CPU    108.42s WALL (  260853 calls)
     cegterg      :   1040.29s CPU   1059.60s WALL (    4986 calls)

     Called by sum_band:

     Called by *egterg:
     h_psi        :  44255.21s CPU  45198.46s WALL ( 5110274 calls)
     s_psi        :   1147.77s CPU   1182.10s WALL (10376853 calls)
     g_psi        :      3.53s CPU      3.60s WALL (   74969 calls)
     cdiaghg      :     80.94s CPU     82.45s WALL (   79249 calls)

     Called by h_psi:
     h_psi:pot    :  44168.29s CPU  45107.97s WALL ( 5110274 calls)
     h_psi:calbec :   1040.08s CPU   1063.71s WALL ( 5110274 calls)
     vloc_psi     :  42345.47s CPU  43245.69s WALL ( 5110274 calls)
     add_vuspsi   :    731.48s CPU    749.63s WALL ( 5110274 calls)

     General routines
     calbec       :   1750.03s CPU   1797.35s WALL (10711817 calls)
     fft          :    399.64s CPU    407.53s WALL (  102357 calls)
     ffts         :     23.30s CPU     24.16s WALL (   27813 calls)
     fftw         :  46605.02s CPU  47659.35s WALL (******** calls)
     interpolate  :     57.80s CPU     59.86s WALL (   12297 calls)
     davcio       :    149.16s CPU    299.42s WALL ( 1273469 calls)
 
     Parallel routines
     fft_scatt_xy :   3185.91s CPU   3245.42s WALL (******** calls)
     fft_scatt_yz :   8498.89s CPU   8694.27s WALL (******** calls)
 
     PHONON       :     1d   14h 5m CPU        1d   14h47m WALL

     INITIALIZATION: 
     phq_setup    :     13.01s CPU     14.40s WALL (      59 calls)
     phq_init     :    973.55s CPU    984.29s WALL (      59 calls)
 
     phq_init     :    973.55s CPU    984.29s WALL (      59 calls)
     set_drhoc    :     31.63s CPU     31.79s WALL (     177 calls)
     init_vloc    :      1.42s CPU      1.43s WALL (      59 calls)
     init_us_1    :      5.09s CPU      5.12s WALL (      59 calls)
     newd         :      8.12s CPU      8.16s WALL (      59 calls)
     dvanqq       :     98.28s CPU     99.12s WALL (      59 calls)
     drho         :    713.46s CPU    720.58s WALL (      59 calls)
 
     DYNAMICAL MATRIX:
     dynmat0      :    140.65s CPU    142.80s WALL (      59 calls)
     phqscf       : 133312.42s CPU 135662.33s WALL (      59 calls)
     dynmatrix    :      1.30s CPU      1.82s WALL (      59 calls)
 
     phqscf       : 133312.42s CPU 135662.33s WALL (      59 calls)
     solve_linter : 133211.67s CPU 135545.89s WALL (     325 calls)
     drhodv       :     95.49s CPU     97.69s WALL (     325 calls)
 
     dynmat0      :    140.65s CPU    142.80s WALL (      59 calls)
     dynmat_us    :     93.48s CPU     94.18s WALL (      59 calls)
     d2ionq       :      0.51s CPU      0.53s WALL (      59 calls)
     dynmatcc     :     25.11s CPU     25.32s WALL (      59 calls)
 
     dynmat_us    :     93.48s CPU     94.18s WALL (      59 calls)
     addusdynmat  :      0.01s CPU      0.01s WALL (      59 calls)
 
     phqscf       : 133312.42s CPU 135662.33s WALL (      59 calls)
     solve_linter : 133211.67s CPU 135545.89s WALL (     325 calls)
 
     solve_linter : 133211.67s CPU 135545.89s WALL (     325 calls)
     dvqpsi_us    :    268.05s CPU    274.30s WALL (   12876 calls)
     ortho        :    188.00s CPU    194.78s WALL (  240540 calls)
     cgsolve      :  47443.88s CPU  48488.79s WALL (  240540 calls)
     incdrhoscf   :   3720.39s CPU   3850.95s WALL (  240540 calls)
     addusddens   :    988.64s CPU    998.93s WALL (    5881 calls)
     vpsifft      :   3115.76s CPU   3204.36s WALL (  227664 calls)
     dv_of_drho   :    347.56s CPU    360.89s WALL (    5911 calls)
     mix_pot      :     45.59s CPU    360.26s WALL (    5556 calls)
     ef_shift     :      1.30s CPU      1.34s WALL (      39 calls)
     localdos     :      2.86s CPU      2.89s WALL (       4 calls)
     psymdvscf    :    336.38s CPU    345.73s WALL (    3435 calls)
     newdq        :    975.01s CPU    985.45s WALL (    5556 calls)
     adddvscf     :    128.29s CPU    131.15s WALL (  227664 calls)
     drhodvus     :      6.56s CPU      9.36s WALL (     325 calls)
 
     dvqpsi_us    :    268.05s CPU    274.30s WALL (   12876 calls)
     dvqpsi_us_on :     28.82s CPU     29.22s WALL (   12876 calls)
 
     cgsolve      :  47443.88s CPU  48488.79s WALL (  240540 calls)
     ch_psi       :  46630.09s CPU  47647.15s WALL ( 5026039 calls)
 
     ch_psi       :  46630.09s CPU  47647.15s WALL ( 5026039 calls)
     h_psi        :  44255.21s CPU  45198.46s WALL ( 5110274 calls)
     last         :   2375.88s CPU   2444.55s WALL ( 5026039 calls)
 
     h_psi        :  44255.21s CPU  45198.46s WALL ( 5110274 calls)
     add_vuspsi   :    731.48s CPU    749.63s WALL ( 5110274 calls)
 
     incdrhoscf   :   3720.39s CPU   3850.95s WALL (  240540 calls)
     addusdbec    :     84.37s CPU     85.85s WALL (  253416 calls)
 
     drhodvus     :      6.56s CPU      9.36s WALL (     325 calls)
 
      General routines
     calbec       :   1750.03s CPU   1797.35s WALL (10711817 calls)
     fft          :    399.64s CPU    407.53s WALL (  102357 calls)
     ffts         :     23.30s CPU     24.16s WALL (   27813 calls)
     fftw         :  46605.02s CPU  47659.35s WALL (******** calls)
     davcio       :    149.16s CPU    299.42s WALL ( 1273469 calls)
     write_rec    :     22.79s CPU    200.68s WALL (    5881 calls)
 
 
     PHONON       :     1d   14h 5m CPU        1d   14h47m WALL

 
   This run was terminated on:   5:26:56  12Nov2020            

=------------------------------------------------------------------------------=
   JOB DONE.
=------------------------------------------------------------------------------=
