
     Program PWSCF v.6.3 starts on 17Feb2020 at 19:53: 5 

     This program is part of the open-source Quantum ESPRESSO suite
     for quantum simulation of materials; please cite
         "P. Giannozzi et al., J. Phys.:Condens. Matter 21 395502 (2009);
         "P. Giannozzi et al., J. Phys.:Condens. Matter 29 465901 (2017);
          URL http://www.quantum-espresso.org", 
     in publications or presentations arising from this work. More details at
     http://www.quantum-espresso.org/quote

     Parallel version (MPI), running on   160 processors

     MPI processes distributed on     5 nodes
     K-points division:     npool     =      10
     R & G space division:  proc/nbgrp/npool/nimage =      16
     Reading input from scf.pwi
Warning: card &IONS ignored
Warning: card / ignored
Warning: card &CELL ignored
Warning: card    CELL_DOFREE      = '2DXY' ignored
Warning: card / ignored

     Current dimensions of program PWSCF are:
     Max number of different atomic species (ntypx) = 10
     Max number of k-points (npk) =  40000
     Max angular momentum in pseudopotentials (lmaxx) =  3

     Subspace diagonalization in iterative solution of the eigenvalue problem:
     one sub-group per band group will be used
     scalapack distributed-memory algorithm (size of sub-group:  2*  2 procs)

 
     Parallelization info
     --------------------
     sticks:   dense  smooth     PW     G-vecs:    dense   smooth      PW
     Min        2067    1031    270               331459   117176   15794
     Max        2068    1034    272               331464   117179   15797
     Sum       33073   16519   4339              5303377  1874829  252729
 


     bravais-lattice index     =            0
     lattice parameter (alat)  =      34.6317  a.u.
     unit-cell volume          =   39256.1391 (a.u.)^3
     number of atoms/cell      =           32
     number of atomic types    =            1
     number of electrons       =       448.00
     number of Kohn-Sham states=          269
     kinetic-energy cutoff     =      50.0000  Ry
     charge density cutoff     =     400.0000  Ry
     convergence threshold     =      1.0E-08
     mixing beta               =       0.4000
     number of iterations used =            8  plain     mixing
     Exchange-correlation      = SLA  PW   PSX  PSC ( 1  4 10  8 0 0)

     celldm(1)=  34.631719  celldm(2)=   0.000000  celldm(3)=   0.000000
     celldm(4)=   0.000000  celldm(5)=   0.000000  celldm(6)=   0.000000

     crystal axes: (cart. coord. in units of alat)
               a(1) = (   1.000000   0.000000   0.000000 )  
               a(2) = (  -0.500000   0.866025   0.000000 )  
               a(3) = (   0.000000   0.000000   1.091327 )  

     reciprocal axes: (cart. coord. in units 2 pi/alat)
               b(1) = (  1.000000  0.577350  0.000000 )  
               b(2) = (  0.000000  1.154701  0.000000 )  
               b(3) = (  0.000000  0.000000  0.916316 )  


     PseudoPot. # 1 for Sn read from file:
     /n/home08/xiey/q-e/pseudo/sn_pbesol_v1.4.uspp.F.UPF
     MD5 check sum: 463fec1d5456f1e96ec1bfcad4b7b038
     Pseudo is Ultrasoft + core correction, Zval = 14.0
     Generated by new atomic code, or converted to UPF format
     Using radial grid of  891 points,  6 beta functions with: 
                l(1) =   0
                l(2) =   0
                l(3) =   1
                l(4) =   1
                l(5) =   2
                l(6) =   2
     Q(r) pseudized with  8 coefficients,  rinner =    1.350   1.350   1.350
                                                       1.350   1.350

     atomic species   valence    mass     pseudopotential
        Sn            14.00   118.71000     Sn( 1.00)

     No symmetry found


                                    s                        frac. trans.

      isym =  1     identity                                     

 cryst.   s( 1) = (     1          0          0      )
                  (     0          1          0      )
                  (     0          0          1      )

 cart.    s( 1) = (  1.0000000  0.0000000  0.0000000 )
                  (  0.0000000  1.0000000  0.0000000 )
                  (  0.0000000  0.0000000  1.0000000 )


   Cartesian axes

     site n.     atom                  positions (alat units)
         1           Sn  tau(   1) = (  -0.0022634   0.0031734  -0.0211633  )
         2           Sn  tau(   2) = (   0.0009971   0.1467732   0.0189505  )
         3           Sn  tau(   3) = (  -0.1206169   0.2216544  -0.0240453  )
         4           Sn  tau(   4) = (  -0.1257714   0.3643509   0.0227931  )
         5           Sn  tau(   5) = (  -0.2491716   0.4381422  -0.0222048  )
         6           Sn  tau(   6) = (  -0.2489588   0.5803281   0.0288705  )
         7           Sn  tau(   7) = (  -0.3756586   0.6459530  -0.0155067  )
         8           Sn  tau(   8) = (  -0.3776223   0.7917213   0.0219483  )
         9           Sn  tau(   9) = (   0.2426418   0.0025285  -0.0247709  )
        10           Sn  tau(  10) = (   0.2512588   0.1446665   0.0283468  )
        11           Sn  tau(  11) = (   0.1285235   0.2185404  -0.0206542  )
        12           Sn  tau(  12) = (   0.1253573   0.3610199   0.0261157  )
        13           Sn  tau(  13) = (   0.0035515   0.4328021  -0.0186832  )
        14           Sn  tau(  14) = (  -0.0026988   0.5781508   0.0182905  )
        15           Sn  tau(  15) = (  -0.1277386   0.6526668  -0.0231191  )
        16           Sn  tau(  16) = (  -0.1295068   0.7986697   0.0201013  )
        17           Sn  tau(  17) = (   0.4986005   0.0013767  -0.0221895  )
        18           Sn  tau(  18) = (   0.5016115   0.1473243   0.0217781  )
        19           Sn  tau(  19) = (   0.3754062   0.2131182  -0.0263670  )
        20           Sn  tau(  20) = (   0.3734523   0.3556325   0.0248568  )
        21           Sn  tau(  21) = (   0.2522750   0.4275392  -0.0256158  )
        22           Sn  tau(  22) = (   0.2492276   0.5722912   0.0126734  )
        23           Sn  tau(  23) = (   0.1245878   0.6485771  -0.0194818  )
        24           Sn  tau(  24) = (   0.1233733   0.7945977   0.0222769  )
        25           Sn  tau(  25) = (   0.7510576  -0.0020341  -0.0184731  )
        26           Sn  tau(  26) = (   0.7549518   0.1449956   0.0173711  )
        27           Sn  tau(  27) = (   0.6288578   0.2196018  -0.0188960  )
        28           Sn  tau(  28) = (   0.6261052   0.3660994   0.0230647  )
        29           Sn  tau(  29) = (   0.4979438   0.4271251  -0.0253205  )
        30           Sn  tau(  30) = (   0.4987594   0.5697308   0.0209308  )
        31           Sn  tau(  31) = (   0.3760043   0.6441081  -0.0220487  )
        32           Sn  tau(  32) = (   0.3754631   0.7904815   0.0201713  )

   Crystallographic axes

     site n.     atom                  positions (cryst. coord.)
         1           Sn  tau(   1) = ( -0.0004312  0.0036643 -0.0193922  )
         2           Sn  tau(   2) = (  0.0857367  0.1694791  0.0173647  )
         3           Sn  tau(   3) = (  0.0073553  0.2559445 -0.0220331  )
         4           Sn  tau(   4) = (  0.0845867  0.4207162  0.0208857  )
         5           Sn  tau(   5) = (  0.0037899  0.5059230 -0.0203466  )
         6           Sn  tau(   6) = (  0.0860938  0.6701052  0.0264545  )
         7           Sn  tau(   7) = ( -0.0027174  0.7458823 -0.0142090  )
         8           Sn  tau(   8) = (  0.0794782  0.9142010  0.0201116  )
         9           Sn  tau(   9) = (  0.2441017  0.0029197 -0.0226979  )
        10           Sn  tau(  10) = (  0.3347820  0.1670465  0.0259746  )
        11           Sn  tau(  11) = (  0.2546978  0.2523487 -0.0189258  )
        12           Sn  tau(  12) = (  0.3337923  0.4168699  0.0239303  )
        13           Sn  tau(  13) = (  0.2534300  0.4997568 -0.0171197  )
        14           Sn  tau(  14) = (  0.3310967  0.6675910  0.0167599  )
        15           Sn  tau(  15) = (  0.2490788  0.7536347 -0.0211844  )
        16           Sn  tau(  16) = (  0.3316054  0.9222243  0.0184191  )
        17           Sn  tau(  17) = (  0.4993953  0.0015897 -0.0203326  )
        18           Sn  tau(  18) = (  0.5866692  0.1701154  0.0199557  )
        19           Sn  tau(  19) = (  0.4984500  0.2460876 -0.0241605  )
        20           Sn  tau(  20) = (  0.5787769  0.4106491  0.0227767  )
        21           Sn  tau(  21) = (  0.4991148  0.4936797 -0.0234722  )
        22           Sn  tau(  22) = (  0.5796401  0.6608250  0.0116128  )
        23           Sn  tau(  23) = (  0.4990439  0.7489123 -0.0178515  )
        24           Sn  tau(  24) = (  0.5821345  0.9175224  0.0204126  )
        25           Sn  tau(  25) = (  0.7498832 -0.0023488 -0.0169272  )
        26           Sn  tau(  26) = (  0.8386650  0.1674265  0.0159174  )
        27           Sn  tau(  27) = (  0.7556449  0.2535743 -0.0173147  )
        28           Sn  tau(  28) = (  0.8374727  0.4227351  0.0211346  )
        29           Sn  tau(  29) = (  0.7445446  0.4932015 -0.0232016  )
        30           Sn  tau(  30) = (  0.8276936  0.6578684  0.0191792  )
        31           Sn  tau(  31) = (  0.7478803  0.7437520 -0.0202036  )
        32           Sn  tau(  32) = (  0.8318478  0.9127694  0.0184833  )

     number of k points=    10  Marzari-Vanderbilt smearing, width (Ry)=  0.0200
                       cart. coord. in units 2pi/alat
        k(    1) = (   0.0000000   0.0000000   0.0000000), wk =   0.1250000
        k(    2) = (   0.0000000   0.2886751   0.0000000), wk =   0.2500000
        k(    3) = (   0.0000000  -0.5773503   0.0000000), wk =   0.1250000
        k(    4) = (   0.2500000   0.1443376   0.0000000), wk =   0.2500000
        k(    5) = (   0.2500000   0.4330127   0.0000000), wk =   0.2500000
        k(    6) = (   0.2500000  -0.4330127   0.0000000), wk =   0.2500000
        k(    7) = (   0.2500000  -0.1443376   0.0000000), wk =   0.2500000
        k(    8) = (  -0.5000000  -0.2886751   0.0000000), wk =   0.1250000
        k(    9) = (  -0.5000000   0.0000000   0.0000000), wk =   0.2500000
        k(   10) = (  -0.5000000  -0.8660254   0.0000000), wk =   0.1250000

                       cryst. coord.
        k(    1) = (   0.0000000   0.0000000   0.0000000), wk =   0.1250000
        k(    2) = (   0.0000000   0.2500000   0.0000000), wk =   0.2500000
        k(    3) = (   0.0000000  -0.5000000   0.0000000), wk =   0.1250000
        k(    4) = (   0.2500000   0.0000000   0.0000000), wk =   0.2500000
        k(    5) = (   0.2500000   0.2500000   0.0000000), wk =   0.2500000
        k(    6) = (   0.2500000  -0.5000000   0.0000000), wk =   0.2500000
        k(    7) = (   0.2500000  -0.2500000   0.0000000), wk =   0.2500000
        k(    8) = (  -0.5000000   0.0000000   0.0000000), wk =   0.1250000
        k(    9) = (  -0.5000000   0.2500000   0.0000000), wk =   0.2500000
        k(   10) = (  -0.5000000  -0.5000000   0.0000000), wk =   0.1250000

     Dense  grid:  5303377 G-vectors     FFT dimensions: ( 225, 225, 243)

     Smooth grid:  1874829 G-vectors     FFT dimensions: ( 160, 160, 180)

     Dynamical RAM for                 wfc:      60.12 MB

     Dynamical RAM for     wfc (w. buffer):      60.12 MB

     Dynamical RAM for           str. fact:       5.06 MB

     Dynamical RAM for           local pot:       0.00 MB

     Dynamical RAM for          nlocal pot:     128.74 MB

     Dynamical RAM for                qrad:       8.83 MB

     Dynamical RAM for          rho,v,vnew:      33.71 MB

     Dynamical RAM for               rhoin:      11.24 MB

     Dynamical RAM for            rho*nmix:      80.92 MB

     Dynamical RAM for           G-vectors:      19.86 MB

     Dynamical RAM for          h,s,v(r/c):      13.25 MB

     Dynamical RAM for          <psi|beta>:       2.36 MB

     Dynamical RAM for                 psi:     240.50 MB

     Dynamical RAM for                hpsi:     240.50 MB

     Dynamical RAM for                spsi:     240.50 MB

     Dynamical RAM for      wfcinit/wfcrot:     130.64 MB

     Dynamical RAM for           addusdens:     114.81 MB

     Dynamical RAM for          addusforce:     144.27 MB

     Dynamical RAM for         addusstress:     103.94 MB

     Estimated static dynamical RAM per process >     389.51 MB

     Estimated max dynamical RAM per process >       1.10 GB

     Estimated total dynamical RAM >     176.03 GB

     Initial potential from superposition of free atoms

     starting charge  415.99867, renormalised to  448.00000

     negative rho (up, down):  1.617E-02 0.000E+00
     Starting wfcs are  288 randomized atomic wfcs

     total cpu time spent up to now is       14.1 secs

     Self-consistent Calculation

     iteration #  1     ecut=    50.00 Ry     beta= 0.40
     Davidson diagonalization with overlap
     ethr =  1.00E-02,  avg # of iterations = 10.0

     negative rho (up, down):  4.475E-03 0.000E+00

     total cpu time spent up to now is       57.6 secs

     total energy              =   -5076.61553570 Ry
     Harris-Foulkes estimate   =   -5101.88140591 Ry
     estimated scf accuracy    <      43.58418311 Ry

     iteration #  2     ecut=    50.00 Ry     beta= 0.40
     Davidson diagonalization with overlap
     ethr =  9.73E-03,  avg # of iterations =  2.0

     negative rho (up, down):  3.644E-03 0.000E+00

     total cpu time spent up to now is       83.9 secs

     total energy              =   -5083.80143626 Ry
     Harris-Foulkes estimate   =   -5084.40491044 Ry
     estimated scf accuracy    <       1.17807551 Ry

     iteration #  3     ecut=    50.00 Ry     beta= 0.40
     Davidson diagonalization with overlap
     ethr =  2.63E-04,  avg # of iterations =  9.7

     negative rho (up, down):  3.617E-03 0.000E+00

     total cpu time spent up to now is      119.0 secs

     total energy              =   -5083.96257336 Ry
     Harris-Foulkes estimate   =   -5084.03687957 Ry
     estimated scf accuracy    <       0.16301802 Ry

     iteration #  4     ecut=    50.00 Ry     beta= 0.40
     Davidson diagonalization with overlap
     ethr =  3.64E-05,  avg # of iterations =  8.7

     negative rho (up, down):  3.382E-03 0.000E+00

     total cpu time spent up to now is      157.0 secs

     total energy              =   -5083.97321462 Ry
     Harris-Foulkes estimate   =   -5084.03957311 Ry
     estimated scf accuracy    <       0.25792447 Ry

     iteration #  5     ecut=    50.00 Ry     beta= 0.40
     Davidson diagonalization with overlap
     ethr =  3.64E-05,  avg # of iterations =  6.9

     negative rho (up, down):  3.184E-03 0.000E+00

     total cpu time spent up to now is      183.2 secs

     total energy              =   -5084.00267270 Ry
     Harris-Foulkes estimate   =   -5084.00522215 Ry
     estimated scf accuracy    <       0.00539896 Ry

     iteration #  6     ecut=    50.00 Ry     beta= 0.40
     Davidson diagonalization with overlap
     c_bands:  1 eigenvalues not converged
     ethr =  1.21E-06,  avg # of iterations = 14.0

     negative rho (up, down):  3.034E-03 0.000E+00

     total cpu time spent up to now is      223.7 secs

     total energy              =   -5084.00361825 Ry
     Harris-Foulkes estimate   =   -5084.00398640 Ry
     estimated scf accuracy    <       0.00102883 Ry

     iteration #  7     ecut=    50.00 Ry     beta= 0.40
     Davidson diagonalization with overlap
     ethr =  2.30E-07,  avg # of iterations =  3.0

     negative rho (up, down):  2.930E-03 0.000E+00

     total cpu time spent up to now is      247.7 secs

     total energy              =   -5084.00381646 Ry
     Harris-Foulkes estimate   =   -5084.00390113 Ry
     estimated scf accuracy    <       0.00025797 Ry

     iteration #  8     ecut=    50.00 Ry     beta= 0.40
     Davidson diagonalization with overlap
     ethr =  5.76E-08,  avg # of iterations =  2.8

     negative rho (up, down):  2.858E-03 0.000E+00

     total cpu time spent up to now is      269.2 secs

     total energy              =   -5084.00384703 Ry
     Harris-Foulkes estimate   =   -5084.00387136 Ry
     estimated scf accuracy    <       0.00008725 Ry

     iteration #  9     ecut=    50.00 Ry     beta= 0.40
     Davidson diagonalization with overlap
     ethr =  1.95E-08,  avg # of iterations =  2.8

     negative rho (up, down):  2.825E-03 0.000E+00

     total cpu time spent up to now is      290.6 secs

     total energy              =   -5084.00386115 Ry
     Harris-Foulkes estimate   =   -5084.00386534 Ry
     estimated scf accuracy    <       0.00001554 Ry

     iteration # 10     ecut=    50.00 Ry     beta= 0.40
     Davidson diagonalization with overlap
     ethr =  3.47E-09,  avg # of iterations =  3.0

     negative rho (up, down):  2.805E-03 0.000E+00

     total cpu time spent up to now is      316.9 secs

     total energy              =   -5084.00386451 Ry
     Harris-Foulkes estimate   =   -5084.00386526 Ry
     estimated scf accuracy    <       0.00000302 Ry

     iteration # 11     ecut=    50.00 Ry     beta= 0.40
     Davidson diagonalization with overlap
     ethr =  6.73E-10,  avg # of iterations =  2.0

     negative rho (up, down):  2.790E-03 0.000E+00

     total cpu time spent up to now is      338.9 secs

     total energy              =   -5084.00386488 Ry
     Harris-Foulkes estimate   =   -5084.00386496 Ry
     estimated scf accuracy    <       0.00000039 Ry

     iteration # 12     ecut=    50.00 Ry     beta= 0.40
     Davidson diagonalization with overlap
     ethr =  8.64E-11,  avg # of iterations =  3.0

     negative rho (up, down):  2.779E-03 0.000E+00

     total cpu time spent up to now is      363.3 secs

     total energy              =   -5084.00386494 Ry
     Harris-Foulkes estimate   =   -5084.00386505 Ry
     estimated scf accuracy    <       0.00000044 Ry

     iteration # 13     ecut=    50.00 Ry     beta= 0.40
     Davidson diagonalization with overlap
     ethr =  8.64E-11,  avg # of iterations =  2.9

     negative rho (up, down):  2.772E-03 0.000E+00

     total cpu time spent up to now is      383.9 secs

     total energy              =   -5084.00386500 Ry
     Harris-Foulkes estimate   =   -5084.00386501 Ry
     estimated scf accuracy    <       0.00000004 Ry

     iteration # 14     ecut=    50.00 Ry     beta= 0.40
     Davidson diagonalization with overlap
     ethr =  8.21E-12,  avg # of iterations =  3.0

     negative rho (up, down):  2.768E-03 0.000E+00

     total cpu time spent up to now is      408.3 secs

     total energy              =   -5084.00386500 Ry
     Harris-Foulkes estimate   =   -5084.00386501 Ry
     estimated scf accuracy    <       0.00000001 Ry

     iteration # 15     ecut=    50.00 Ry     beta= 0.40
     Davidson diagonalization with overlap
     ethr =  2.30E-12,  avg # of iterations =  2.8

     negative rho (up, down):  2.762E-03 0.000E+00

     total cpu time spent up to now is      433.8 secs

     End of self-consistent calculation

          k = 0.0000 0.0000 0.0000 (234445 PWs)   bands (ev):

   -23.6075 -23.6007 -23.5967 -23.5891 -23.5828 -23.5806 -23.5696 -23.5657
   -23.5639 -23.5586 -23.5585 -23.5541 -23.5515 -23.5473 -23.5463 -23.5439
   -23.5416 -23.5385 -23.5358 -23.5348 -23.5326 -23.5299 -23.5274 -23.5233
   -23.5203 -23.5137 -23.5132 -23.5106 -23.5087 -23.5058 -23.5026 -23.5007
   -23.4984 -23.4903 -23.4876 -23.4845 -23.4823 -23.4758 -23.4723 -23.4698
   -23.4685 -23.4546 -23.4498 -23.4469 -23.4396 -23.4389 -23.4340 -23.4267
   -23.4239 -23.4007 -23.3961 -23.3942 -23.3908 -23.3896 -23.3866 -23.3816
   -23.3801 -23.3779 -23.3754 -23.3741 -23.3721 -23.3712 -23.3693 -23.3666
   -23.3652 -23.3639 -23.3623 -23.3608 -23.3573 -23.3565 -23.3552 -23.3515
   -23.3485 -23.3414 -23.3110 -23.3074 -23.3059 -23.3038 -23.3008 -23.2995
   -23.2974 -23.2798 -23.2788 -23.2778 -23.2748 -23.2745 -23.2716 -23.2676
   -23.2631 -23.2611 -23.2547 -23.2511 -23.2489 -23.2403 -23.2382 -23.2363
   -23.2352 -23.2351 -23.2323 -23.2294 -23.2263 -23.2259 -23.2234 -23.2222
   -23.2176 -23.2067 -23.2061 -23.2038 -23.2013 -23.1998 -23.1977 -23.1945
   -23.1930 -23.1921 -23.1911 -23.1902 -23.1885 -23.1862 -23.1847 -23.1839
   -23.1829 -23.1810 -23.1800 -23.1771 -23.1747 -23.1726 -23.1468 -23.1450
   -23.1270 -23.1258 -23.1224 -23.1206 -23.1170 -23.1145 -23.0990 -23.0938
   -23.0873 -23.0841 -23.0822 -23.0743 -23.0725 -23.0718 -23.0681 -23.0665
   -23.0616 -23.0518 -23.0468 -23.0430 -23.0417 -23.0405 -23.0385 -23.0217
   -23.0156 -23.0135 -22.9908 -22.9888 -22.9886 -22.9860 -22.9810 -22.9796
   -11.7061 -11.1940 -11.1840 -11.1522 -11.1374 -11.1164 -11.1037 -10.1656
   -10.1462 -10.1314 -10.1126 -10.1115 -10.1039 -10.0437 -10.0152 -10.0045
    -8.4919  -8.4545  -8.4295  -8.1902  -8.1740  -8.1657  -8.1537  -8.1378
    -8.1229  -6.4962  -6.4626  -6.4549  -6.4333  -6.4220  -6.3992  -5.2037
    -4.7524  -4.7278  -4.7140  -4.7046  -4.6780  -4.6679  -3.8427  -3.8241
    -3.8077  -3.7715  -3.7651  -3.7568  -3.7325  -3.7217  -3.7092  -3.2627
    -3.2321  -3.2018  -3.1932  -3.1770  -3.1417  -3.1368  -3.1092  -3.1023
    -2.9800  -2.9452  -2.9283  -2.9159  -2.9103  -2.8837  -2.4171  -2.3731
    -1.8330  -1.5507  -1.5219  -1.5192  -1.3407  -1.3089  -1.2727  -1.2520
    -1.2337  -1.2256  -0.7457  -0.7223  -0.7116  -0.6600  -0.6397  -0.6361
    -0.6138  -0.5923  -0.5439  -0.2244  -0.1378  -0.0808  -0.0509   0.0065
     0.0541   0.1491   1.1553   1.2259   1.5836   1.6061   1.6332   1.6528
     1.6766   1.7221   1.7672   1.7816   1.8028   1.8150   1.8257   1.8590
     1.9087   1.9603   2.0724   2.0945   2.1393

     occupation numbers 
     1.0000   1.0000   1.0000   1.0000   1.0000   1.0000   1.0000   1.0000
     1.0000   1.0000   1.0000   1.0000   1.0000   1.0000   1.0000   1.0000
     1.0000   1.0000   1.0000   1.0000   1.0000   1.0000   1.0000   1.0000
     1.0000   1.0000   1.0000   1.0000   1.0000   1.0000   1.0000   1.0000
     1.0000   1.0000   1.0000   1.0000   1.0000   1.0000   1.0000   1.0000
     1.0000   1.0000   1.0000   1.0000   1.0000   1.0000   1.0000   1.0000
     1.0000   1.0000   1.0000   1.0000   1.0000   1.0000   1.0000   1.0000
     1.0000   1.0000   1.0000   1.0000   1.0000   1.0000   1.0000   1.0000
     1.0000   1.0000   1.0000   1.0000   1.0000   1.0000   1.0000   1.0000
     1.0000   1.0000   1.0000   1.0000   1.0000   1.0000   1.0000   1.0000
     1.0000   1.0000   1.0000   1.0000   1.0000   1.0000   1.0000   1.0000
     1.0000   1.0000   1.0000   1.0000   1.0000   1.0000   1.0000   1.0000
     1.0000   1.0000   1.0000   1.0000   1.0000   1.0000   1.0000   1.0000
     1.0000   1.0000   1.0000   1.0000   1.0000   1.0000   1.0000   1.0000
     1.0000   1.0000   1.0000   1.0000   1.0000   1.0000   1.0000   1.0000
     1.0000   1.0000   1.0000   1.0000   1.0000   1.0000   1.0000   1.0000
     1.0000   1.0000   1.0000   1.0000   1.0000   1.0000   1.0000   1.0000
     1.0000   1.0000   1.0000   1.0000   1.0000   1.0000   1.0000   1.0000
     1.0000   1.0000   1.0000   1.0000   1.0000   1.0000   1.0000   1.0000
     1.0000   1.0000   1.0000   1.0000   1.0000   1.0000   1.0000   1.0000
     1.0000   1.0000   1.0000   1.0000   1.0000   1.0000   1.0000   1.0000
     1.0000   1.0000   1.0000   1.0000   1.0000   1.0000   1.0000   1.0000
     1.0000   1.0000   1.0000   1.0000   1.0000   1.0000   1.0000   1.0000
     1.0000   1.0000   1.0000   1.0000   1.0000   1.0000   1.0000   1.0000
     1.0000   1.0000   1.0000   1.0000   1.0000   1.0000   1.0000   1.0000
     1.0000   1.0000   1.0000   1.0000   1.0000   1.0000   1.0000   1.0000
     1.0001   1.0001   1.0001   1.0002   1.0004   1.0004   1.0007   1.0008
     1.0053   1.0084   1.0104   1.0121   1.0130   1.0175   0.8473   0.7380
     0.0035   0.0000   0.0000   0.0000   0.0000   0.0000   0.0000   0.0000
     0.0000   0.0000   0.0000   0.0000   0.0000   0.0000   0.0000   0.0000
     0.0000   0.0000   0.0000   0.0000   0.0000   0.0000   0.0000   0.0000
     0.0000   0.0000   0.0000   0.0000   0.0000   0.0000   0.0000   0.0000
     0.0000   0.0000   0.0000   0.0000   0.0000   0.0000   0.0000   0.0000
     0.0000   0.0000   0.0000   0.0000   0.0000

          k = 0.0000 0.2887 0.0000 (234416 PWs)   bands (ev):

   -23.6077 -23.6018 -23.5950 -23.5867 -23.5839 -23.5790 -23.5699 -23.5677
   -23.5641 -23.5598 -23.5583 -23.5548 -23.5512 -23.5481 -23.5466 -23.5451
   -23.5413 -23.5374 -23.5369 -23.5351 -23.5312 -23.5301 -23.5272 -23.5234
   -23.5193 -23.5146 -23.5137 -23.5105 -23.5085 -23.5056 -23.5034 -23.4999
   -23.4970 -23.4916 -23.4878 -23.4844 -23.4814 -23.4748 -23.4737 -23.4691
   -23.4632 -23.4594 -23.4527 -23.4457 -23.4414 -23.4374 -23.4305 -23.4243
   -23.4239 -23.4030 -23.3986 -23.3975 -23.3914 -23.3907 -23.3870 -23.3816
   -23.3799 -23.3776 -23.3743 -23.3724 -23.3708 -23.3688 -23.3676 -23.3650
   -23.3631 -23.3624 -23.3602 -23.3590 -23.3567 -23.3544 -23.3528 -23.3487
   -23.3457 -23.3390 -23.3253 -23.3228 -23.3185 -23.3160 -23.3036 -23.2984
   -23.2967 -23.2797 -23.2758 -23.2743 -23.2699 -23.2672 -23.2641 -23.2629
   -23.2602 -23.2574 -23.2540 -23.2507 -23.2447 -23.2434 -23.2412 -23.2389
   -23.2350 -23.2330 -23.2311 -23.2288 -23.2271 -23.2257 -23.2227 -23.2216
   -23.2164 -23.2113 -23.2101 -23.2057 -23.2008 -23.1983 -23.1979 -23.1960
   -23.1942 -23.1930 -23.1903 -23.1894 -23.1869 -23.1845 -23.1837 -23.1824
   -23.1815 -23.1787 -23.1785 -23.1743 -23.1731 -23.1714 -23.1532 -23.1515
   -23.1392 -23.1348 -23.1179 -23.1167 -23.1078 -23.1030 -23.0954 -23.0924
   -23.0897 -23.0874 -23.0837 -23.0789 -23.0755 -23.0731 -23.0719 -23.0695
   -23.0656 -23.0565 -23.0483 -23.0432 -23.0350 -23.0329 -23.0303 -23.0189
   -23.0123 -23.0088 -23.0007 -22.9985 -22.9898 -22.9875 -22.9771 -22.9756
   -11.6719 -11.3893 -11.2554 -11.2482 -10.9838 -10.9728 -10.8484 -10.4675
   -10.4526 -10.1983 -10.1366 -10.1032 -10.0405 -10.0219  -9.7804  -9.7638
    -8.6043  -8.5765  -8.4478  -8.3968  -8.2265  -8.2132  -8.1931  -7.7118
    -7.6764  -7.0997  -6.8313  -6.7979  -6.2055  -6.1684  -5.8338  -5.2423
    -4.9319  -4.9065  -4.5998  -4.5917  -4.3901  -4.3588  -3.9375  -3.9247
    -3.8176  -3.8121  -3.7789  -3.7346  -3.7110  -3.6869  -3.6254  -3.4750
    -3.4392  -3.3985  -3.2795  -3.2291  -3.2090  -3.1895  -3.1769  -3.0507
    -3.0195  -2.9536  -2.9365  -2.9151  -2.8865  -2.6484  -2.6110  -2.4797
    -1.6459  -1.6090  -1.5258  -1.4767  -1.4030  -1.3310  -1.3175  -1.2592
    -0.9715  -0.9283  -0.8986  -0.6391  -0.6266  -0.5938  -0.5105  -0.4337
    -0.4096  -0.3428  -0.3288  -0.2603  -0.1346  -0.0726  -0.0238   0.0393
     0.0679   0.1764   0.9686   1.0023   1.0319   1.0753   1.1239   1.3374
     1.4471   1.4718   1.4793   1.7662   1.8020   1.8338   1.8540   1.9380
     1.9513   1.9602   1.9892   1.9957   2.0020

     occupation numbers 
     1.0000   1.0000   1.0000   1.0000   1.0000   1.0000   1.0000   1.0000
     1.0000   1.0000   1.0000   1.0000   1.0000   1.0000   1.0000   1.0000
     1.0000   1.0000   1.0000   1.0000   1.0000   1.0000   1.0000   1.0000
     1.0000   1.0000   1.0000   1.0000   1.0000   1.0000   1.0000   1.0000
     1.0000   1.0000   1.0000   1.0000   1.0000   1.0000   1.0000   1.0000
     1.0000   1.0000   1.0000   1.0000   1.0000   1.0000   1.0000   1.0000
     1.0000   1.0000   1.0000   1.0000   1.0000   1.0000   1.0000   1.0000
     1.0000   1.0000   1.0000   1.0000   1.0000   1.0000   1.0000   1.0000
     1.0000   1.0000   1.0000   1.0000   1.0000   1.0000   1.0000   1.0000
     1.0000   1.0000   1.0000   1.0000   1.0000   1.0000   1.0000   1.0000
     1.0000   1.0000   1.0000   1.0000   1.0000   1.0000   1.0000   1.0000
     1.0000   1.0000   1.0000   1.0000   1.0000   1.0000   1.0000   1.0000
     1.0000   1.0000   1.0000   1.0000   1.0000   1.0000   1.0000   1.0000
     1.0000   1.0000   1.0000   1.0000   1.0000   1.0000   1.0000   1.0000
     1.0000   1.0000   1.0000   1.0000   1.0000   1.0000   1.0000   1.0000
     1.0000   1.0000   1.0000   1.0000   1.0000   1.0000   1.0000   1.0000
     1.0000   1.0000   1.0000   1.0000   1.0000   1.0000   1.0000   1.0000
     1.0000   1.0000   1.0000   1.0000   1.0000   1.0000   1.0000   1.0000
     1.0000   1.0000   1.0000   1.0000   1.0000   1.0000   1.0000   1.0000
     1.0000   1.0000   1.0000   1.0000   1.0000   1.0000   1.0000   1.0000
     1.0000   1.0000   1.0000   1.0000   1.0000   1.0000   1.0000   1.0000
     1.0000   1.0000   1.0000   1.0000   1.0000   1.0000   1.0000   1.0000
     1.0000   1.0000   1.0000   1.0000   1.0000   1.0000   1.0000   1.0000
     1.0000   1.0000   1.0000   1.0000   1.0000   1.0000   1.0000   1.0000
     1.0000   1.0000   1.0000   1.0000   1.0000   1.0000   1.0000   1.0000
     1.0000   1.0000   1.0000   1.0000   1.0000   1.0000   1.0000   1.0000
     1.0000   1.0000   1.0000   1.0001   1.0001   1.0002   1.0002   1.0019
     1.0030   1.0076   1.0094   1.0122   1.0170   1.0826   1.0816   0.9713
     0.0001   0.0000   0.0000   0.0000   0.0000   0.0000   0.0000   0.0000
     0.0000   0.0000   0.0000   0.0000   0.0000   0.0000   0.0000   0.0000
     0.0000   0.0000   0.0000   0.0000   0.0000   0.0000   0.0000   0.0000
     0.0000   0.0000   0.0000   0.0000   0.0000   0.0000   0.0000   0.0000
     0.0000   0.0000   0.0000   0.0000   0.0000   0.0000   0.0000   0.0000
     0.0000   0.0000   0.0000   0.0000   0.0000

          k = 0.0000-0.5774 0.0000 (234418 PWs)   bands (ev):

   -23.6078 -23.6027 -23.5926 -23.5855 -23.5833 -23.5795 -23.5709 -23.5682
   -23.5630 -23.5607 -23.5595 -23.5556 -23.5514 -23.5490 -23.5481 -23.5444
   -23.5408 -23.5384 -23.5361 -23.5349 -23.5317 -23.5293 -23.5270 -23.5234
   -23.5193 -23.5149 -23.5136 -23.5109 -23.5079 -23.5068 -23.5034 -23.4980
   -23.4957 -23.4938 -23.4895 -23.4837 -23.4782 -23.4745 -23.4736 -23.4692
   -23.4635 -23.4572 -23.4547 -23.4510 -23.4397 -23.4359 -23.4283 -23.4240
   -23.4211 -23.4056 -23.4026 -23.4002 -23.3917 -23.3884 -23.3870 -23.3820
   -23.3809 -23.3804 -23.3740 -23.3712 -23.3693 -23.3663 -23.3647 -23.3635
   -23.3627 -23.3606 -23.3571 -23.3561 -23.3499 -23.3478 -23.3460 -23.3447
   -23.3431 -23.3402 -23.3370 -23.3359 -23.3319 -23.3307 -23.3059 -23.3025
   -23.2948 -23.2865 -23.2730 -23.2689 -23.2663 -23.2647 -23.2578 -23.2565
   -23.2548 -23.2532 -23.2520 -23.2501 -23.2479 -23.2446 -23.2419 -23.2386
   -23.2359 -23.2340 -23.2319 -23.2277 -23.2268 -23.2248 -23.2227 -23.2204
   -23.2167 -23.2142 -23.2101 -23.2086 -23.2006 -23.1999 -23.1987 -23.1961
   -23.1940 -23.1920 -23.1906 -23.1901 -23.1886 -23.1858 -23.1836 -23.1817
   -23.1791 -23.1746 -23.1709 -23.1705 -23.1676 -23.1669 -23.1641 -23.1620
   -23.1460 -23.1424 -23.1132 -23.1064 -23.1054 -23.1010 -23.0954 -23.0931
   -23.0903 -23.0867 -23.0814 -23.0810 -23.0781 -23.0769 -23.0754 -23.0722
   -23.0691 -23.0636 -23.0472 -23.0425 -23.0295 -23.0213 -23.0198 -23.0165
   -23.0152 -23.0135 -23.0027 -22.9976 -22.9958 -22.9945 -22.9746 -22.9731
   -11.5923 -11.5360 -11.2884 -11.2817 -10.7717 -10.7523 -10.7411 -10.7282
   -10.5282 -10.5011 -10.1295 -10.0862 -10.0522 -10.0423  -9.5720  -9.5582
    -8.8338  -8.8146  -8.3704  -8.3318  -8.2926  -8.2665  -7.7277  -7.7194
    -7.2662  -7.2529  -7.2244  -7.2138  -6.1113  -6.0690  -5.4649  -5.3749
    -5.0008  -4.9770  -4.3450  -4.3305  -4.2913  -4.2581  -3.9762  -3.9508
    -3.9427  -3.9214  -3.7832  -3.7740  -3.6301  -3.5700  -3.5379  -3.5176
    -3.4958  -3.4815  -3.4560  -3.4453  -3.3926  -3.3824  -3.2760  -3.2459
    -3.0090  -2.9742  -2.9344  -2.8913  -2.6985  -2.6643  -2.4734  -2.4329
    -1.8255  -1.7883  -1.4919  -1.4175  -1.4041  -1.3647  -1.1793  -1.1633
    -0.7506  -0.7269  -0.7102  -0.6749  -0.6354  -0.6195  -0.4663  -0.4320
    -0.1794  -0.0643   0.0244   0.0643   0.0782   0.1198   0.1477   0.1681
     0.2081   0.2764   0.3564   0.3775   0.3966   0.4071   1.0202   1.0433
     1.0884   1.1535   1.6856   1.7165   1.7955   1.7996   1.8538   1.8846
     1.9156   1.9217   1.9448   1.9495   2.0336

     occupation numbers 
     1.0000   1.0000   1.0000   1.0000   1.0000   1.0000   1.0000   1.0000
     1.0000   1.0000   1.0000   1.0000   1.0000   1.0000   1.0000   1.0000
     1.0000   1.0000   1.0000   1.0000   1.0000   1.0000   1.0000   1.0000
     1.0000   1.0000   1.0000   1.0000   1.0000   1.0000   1.0000   1.0000
     1.0000   1.0000   1.0000   1.0000   1.0000   1.0000   1.0000   1.0000
     1.0000   1.0000   1.0000   1.0000   1.0000   1.0000   1.0000   1.0000
     1.0000   1.0000   1.0000   1.0000   1.0000   1.0000   1.0000   1.0000
     1.0000   1.0000   1.0000   1.0000   1.0000   1.0000   1.0000   1.0000
     1.0000   1.0000   1.0000   1.0000   1.0000   1.0000   1.0000   1.0000
     1.0000   1.0000   1.0000   1.0000   1.0000   1.0000   1.0000   1.0000
     1.0000   1.0000   1.0000   1.0000   1.0000   1.0000   1.0000   1.0000
     1.0000   1.0000   1.0000   1.0000   1.0000   1.0000   1.0000   1.0000
     1.0000   1.0000   1.0000   1.0000   1.0000   1.0000   1.0000   1.0000
     1.0000   1.0000   1.0000   1.0000   1.0000   1.0000   1.0000   1.0000
     1.0000   1.0000   1.0000   1.0000   1.0000   1.0000   1.0000   1.0000
     1.0000   1.0000   1.0000   1.0000   1.0000   1.0000   1.0000   1.0000
     1.0000   1.0000   1.0000   1.0000   1.0000   1.0000   1.0000   1.0000
     1.0000   1.0000   1.0000   1.0000   1.0000   1.0000   1.0000   1.0000
     1.0000   1.0000   1.0000   1.0000   1.0000   1.0000   1.0000   1.0000
     1.0000   1.0000   1.0000   1.0000   1.0000   1.0000   1.0000   1.0000
     1.0000   1.0000   1.0000   1.0000   1.0000   1.0000   1.0000   1.0000
     1.0000   1.0000   1.0000   1.0000   1.0000   1.0000   1.0000   1.0000
     1.0000   1.0000   1.0000   1.0000   1.0000   1.0000   1.0000   1.0000
     1.0000   1.0000   1.0000   1.0000   1.0000   1.0000   1.0000   1.0000
     1.0000   1.0000   1.0000   1.0000   1.0000   1.0000   1.0000   1.0000
     1.0000   1.0000   1.0000   1.0000   1.0000   1.0000   1.0000   1.0000
     1.0000   1.0000   1.0000   1.0000   1.0000   1.0000   1.0000   1.0000
     1.0035   1.0058   1.0097   1.0161   1.0724   1.0805   0.9609   0.8826
     0.0031   0.0016   0.0000   0.0000   0.0000   0.0000   0.0000   0.0000
     0.0000   0.0000   0.0000   0.0000   0.0000   0.0000   0.0000   0.0000
     0.0000   0.0000   0.0000   0.0000   0.0000   0.0000   0.0000   0.0000
     0.0000   0.0000   0.0000   0.0000   0.0000   0.0000   0.0000   0.0000
     0.0000   0.0000   0.0000   0.0000   0.0000   0.0000   0.0000   0.0000
     0.0000   0.0000   0.0000   0.0000   0.0000

          k = 0.2500 0.1443 0.0000 (234416 PWs)   bands (ev):

   -23.6084 -23.6007 -23.5946 -23.5875 -23.5838 -23.5791 -23.5708 -23.5671
   -23.5631 -23.5613 -23.5589 -23.5548 -23.5501 -23.5475 -23.5469 -23.5445
   -23.5415 -23.5391 -23.5355 -23.5342 -23.5320 -23.5299 -23.5272 -23.5235
   -23.5191 -23.5148 -23.5138 -23.5106 -23.5092 -23.5063 -23.5024 -23.5016
   -23.4960 -23.4895 -23.4876 -23.4845 -23.4828 -23.4764 -23.4741 -23.4665
   -23.4633 -23.4598 -23.4499 -23.4476 -23.4423 -23.4382 -23.4299 -23.4264
   -23.4213 -23.4044 -23.3984 -23.3958 -23.3938 -23.3898 -23.3852 -23.3825
   -23.3787 -23.3777 -23.3759 -23.3727 -23.3707 -23.3685 -23.3672 -23.3650
   -23.3642 -23.3630 -23.3603 -23.3588 -23.3563 -23.3542 -23.3522 -23.3494
   -23.3442 -23.3396 -23.3259 -23.3220 -23.3170 -23.3168 -23.3031 -23.2997
   -23.2965 -23.2811 -23.2767 -23.2716 -23.2701 -23.2666 -23.2642 -23.2625
   -23.2611 -23.2577 -23.2544 -23.2510 -23.2450 -23.2427 -23.2395 -23.2365
   -23.2348 -23.2340 -23.2321 -23.2309 -23.2287 -23.2261 -23.2234 -23.2189
   -23.2158 -23.2128 -23.2091 -23.2044 -23.2010 -23.1992 -23.1979 -23.1958
   -23.1946 -23.1926 -23.1918 -23.1900 -23.1876 -23.1838 -23.1830 -23.1820
   -23.1800 -23.1791 -23.1787 -23.1761 -23.1724 -23.1707 -23.1533 -23.1512
   -23.1398 -23.1357 -23.1169 -23.1157 -23.1077 -23.1021 -23.0960 -23.0934
   -23.0908 -23.0870 -23.0830 -23.0776 -23.0757 -23.0747 -23.0711 -23.0696
   -23.0656 -23.0552 -23.0477 -23.0455 -23.0371 -23.0319 -23.0285 -23.0213
   -23.0098 -23.0089 -23.0007 -22.9987 -22.9893 -22.9882 -22.9773 -22.9755
   -11.6713 -11.3973 -11.2560 -11.2335 -10.9953 -10.9698 -10.8472 -10.4752
   -10.4503 -10.2029 -10.1129 -10.0988 -10.0479 -10.0243  -9.7906  -9.7631
    -8.5967  -8.5710  -8.4457  -8.4064  -8.2261  -8.2136  -8.2037  -7.7060
    -7.6767  -7.0929  -6.8313  -6.7997  -6.2089  -6.1708  -5.8322  -5.2432
    -4.9346  -4.9087  -4.5956  -4.5883  -4.3890  -4.3611  -3.9456  -3.9259
    -3.8213  -3.8035  -3.7710  -3.7432  -3.7106  -3.6867  -3.6253  -3.4776
    -3.4434  -3.3855  -3.2928  -3.2281  -3.2030  -3.1872  -3.1672  -3.0322
    -3.0251  -2.9510  -2.9304  -2.9185  -2.9027  -2.6502  -2.6121  -2.4863
    -1.6495  -1.6042  -1.5120  -1.4911  -1.3969  -1.3292  -1.3208  -1.2704
    -0.9707  -0.9278  -0.8982  -0.6455  -0.6210  -0.6013  -0.5256  -0.4197
    -0.4084  -0.3411  -0.3314  -0.2607  -0.1159  -0.0720  -0.0341   0.0366
     0.0794   0.1724   0.9698   0.9952   1.0298   1.0868   1.1224   1.3377
     1.4434   1.4710   1.4997   1.7582   1.7908   1.8381   1.8672   1.9339
     1.9396   1.9625   1.9871   1.9977   2.0007

     occupation numbers 
     1.0000   1.0000   1.0000   1.0000   1.0000   1.0000   1.0000   1.0000
     1.0000   1.0000   1.0000   1.0000   1.0000   1.0000   1.0000   1.0000
     1.0000   1.0000   1.0000   1.0000   1.0000   1.0000   1.0000   1.0000
     1.0000   1.0000   1.0000   1.0000   1.0000   1.0000   1.0000   1.0000
     1.0000   1.0000   1.0000   1.0000   1.0000   1.0000   1.0000   1.0000
     1.0000   1.0000   1.0000   1.0000   1.0000   1.0000   1.0000   1.0000
     1.0000   1.0000   1.0000   1.0000   1.0000   1.0000   1.0000   1.0000
     1.0000   1.0000   1.0000   1.0000   1.0000   1.0000   1.0000   1.0000
     1.0000   1.0000   1.0000   1.0000   1.0000   1.0000   1.0000   1.0000
     1.0000   1.0000   1.0000   1.0000   1.0000   1.0000   1.0000   1.0000
     1.0000   1.0000   1.0000   1.0000   1.0000   1.0000   1.0000   1.0000
     1.0000   1.0000   1.0000   1.0000   1.0000   1.0000   1.0000   1.0000
     1.0000   1.0000   1.0000   1.0000   1.0000   1.0000   1.0000   1.0000
     1.0000   1.0000   1.0000   1.0000   1.0000   1.0000   1.0000   1.0000
     1.0000   1.0000   1.0000   1.0000   1.0000   1.0000   1.0000   1.0000
     1.0000   1.0000   1.0000   1.0000   1.0000   1.0000   1.0000   1.0000
     1.0000   1.0000   1.0000   1.0000   1.0000   1.0000   1.0000   1.0000
     1.0000   1.0000   1.0000   1.0000   1.0000   1.0000   1.0000   1.0000
     1.0000   1.0000   1.0000   1.0000   1.0000   1.0000   1.0000   1.0000
     1.0000   1.0000   1.0000   1.0000   1.0000   1.0000   1.0000   1.0000
     1.0000   1.0000   1.0000   1.0000   1.0000   1.0000   1.0000   1.0000
     1.0000   1.0000   1.0000   1.0000   1.0000   1.0000   1.0000   1.0000
     1.0000   1.0000   1.0000   1.0000   1.0000   1.0000   1.0000   1.0000
     1.0000   1.0000   1.0000   1.0000   1.0000   1.0000   1.0000   1.0000
     1.0000   1.0000   1.0000   1.0000   1.0000   1.0000   1.0000   1.0000
     1.0000   1.0000   1.0000   1.0000   1.0000   1.0000   1.0000   1.0000
     1.0000   1.0000   1.0000   1.0001   1.0001   1.0002   1.0002   1.0025
     1.0028   1.0078   1.0102   1.0118   1.0142   1.0824   1.0818   0.9817
     0.0001   0.0000   0.0000   0.0000   0.0000   0.0000   0.0000   0.0000
     0.0000   0.0000   0.0000   0.0000   0.0000   0.0000   0.0000   0.0000
     0.0000   0.0000   0.0000   0.0000   0.0000   0.0000   0.0000   0.0000
     0.0000   0.0000   0.0000   0.0000   0.0000   0.0000   0.0000   0.0000
     0.0000   0.0000   0.0000   0.0000   0.0000   0.0000   0.0000   0.0000
     0.0000   0.0000   0.0000   0.0000   0.0000

          k = 0.2500 0.4330 0.0000 (234399 PWs)   bands (ev):

   -23.6087 -23.6012 -23.5924 -23.5865 -23.5838 -23.5791 -23.5710 -23.5680
   -23.5623 -23.5617 -23.5595 -23.5566 -23.5511 -23.5489 -23.5462 -23.5449
   -23.5418 -23.5383 -23.5361 -23.5332 -23.5320 -23.5289 -23.5278 -23.5237
   -23.5180 -23.5154 -23.5149 -23.5110 -23.5085 -23.5062 -23.5031 -23.5002
   -23.4958 -23.4908 -23.4889 -23.4836 -23.4809 -23.4748 -23.4736 -23.4676
   -23.4635 -23.4576 -23.4524 -23.4498 -23.4446 -23.4340 -23.4279 -23.4259
   -23.4186 -23.4081 -23.4036 -23.3960 -23.3933 -23.3890 -23.3865 -23.3831
   -23.3798 -23.3779 -23.3739 -23.3717 -23.3704 -23.3681 -23.3671 -23.3638
   -23.3611 -23.3589 -23.3573 -23.3539 -23.3527 -23.3505 -23.3467 -23.3444
   -23.3418 -23.3398 -23.3361 -23.3340 -23.3300 -23.3251 -23.3221 -23.2960
   -23.2872 -23.2825 -23.2808 -23.2748 -23.2645 -23.2627 -23.2610 -23.2565
   -23.2555 -23.2520 -23.2510 -23.2498 -23.2458 -23.2427 -23.2404 -23.2386
   -23.2363 -23.2330 -23.2321 -23.2314 -23.2278 -23.2262 -23.2229 -23.2190
   -23.2168 -23.2131 -23.2086 -23.2061 -23.2042 -23.1997 -23.1986 -23.1967
   -23.1952 -23.1941 -23.1916 -23.1883 -23.1869 -23.1861 -23.1819 -23.1802
   -23.1765 -23.1759 -23.1747 -23.1725 -23.1698 -23.1644 -23.1623 -23.1598
   -23.1532 -23.1299 -23.1257 -23.1086 -23.1010 -23.0969 -23.0947 -23.0926
   -23.0882 -23.0861 -23.0831 -23.0819 -23.0800 -23.0777 -23.0745 -23.0713
   -23.0700 -23.0594 -23.0572 -23.0340 -23.0287 -23.0246 -23.0213 -23.0181
   -23.0126 -23.0109 -23.0072 -23.0007 -22.9946 -22.9862 -22.9813 -22.9705
   -11.6046 -11.4759 -11.4359 -11.0608 -11.0272 -10.7843 -10.6794 -10.6458
   -10.4138 -10.4001 -10.3350 -10.2984  -9.8968  -9.8299  -9.8147  -9.4283
    -8.9535  -8.5877  -8.5680  -8.5545  -8.0285  -7.9999  -7.8588  -7.8250
    -7.4452  -7.4331  -7.1398  -6.6690  -6.6268  -5.7145  -5.6153  -5.3458
    -5.0880  -4.7323  -4.6937  -4.3510  -4.1730  -4.1413  -4.0701  -3.8802
    -3.8525  -3.7832  -3.7463  -3.7284  -3.7156  -3.7069  -3.6799  -3.5979
    -3.5770  -3.4986  -3.4664  -3.3918  -3.3511  -3.2584  -3.2135  -3.1836
    -3.1683  -2.9283  -2.8824  -2.8212  -2.7032  -2.6957  -2.6494  -2.3198
    -1.9234  -1.6217  -1.6052  -1.5777  -1.2698  -1.2584  -1.1020  -1.0660
    -0.9833  -0.8956  -0.7739  -0.5870  -0.4221  -0.3775  -0.3578  -0.3345
    -0.3291  -0.2965  -0.2345  -0.1630  -0.0436   0.0435   0.1169   0.1657
     0.2520   0.3168   0.3782   0.4079   0.8851   0.9635   1.0040   1.0252
     1.0729   1.1122   1.3533   1.3952   1.4403   1.6616   1.7152   1.9848
     2.0004   2.0572   2.0698   2.0876   2.0999

     occupation numbers 
     1.0000   1.0000   1.0000   1.0000   1.0000   1.0000   1.0000   1.0000
     1.0000   1.0000   1.0000   1.0000   1.0000   1.0000   1.0000   1.0000
     1.0000   1.0000   1.0000   1.0000   1.0000   1.0000   1.0000   1.0000
     1.0000   1.0000   1.0000   1.0000   1.0000   1.0000   1.0000   1.0000
     1.0000   1.0000   1.0000   1.0000   1.0000   1.0000   1.0000   1.0000
     1.0000   1.0000   1.0000   1.0000   1.0000   1.0000   1.0000   1.0000
     1.0000   1.0000   1.0000   1.0000   1.0000   1.0000   1.0000   1.0000
     1.0000   1.0000   1.0000   1.0000   1.0000   1.0000   1.0000   1.0000
     1.0000   1.0000   1.0000   1.0000   1.0000   1.0000   1.0000   1.0000
     1.0000   1.0000   1.0000   1.0000   1.0000   1.0000   1.0000   1.0000
     1.0000   1.0000   1.0000   1.0000   1.0000   1.0000   1.0000   1.0000
     1.0000   1.0000   1.0000   1.0000   1.0000   1.0000   1.0000   1.0000
     1.0000   1.0000   1.0000   1.0000   1.0000   1.0000   1.0000   1.0000
     1.0000   1.0000   1.0000   1.0000   1.0000   1.0000   1.0000   1.0000
     1.0000   1.0000   1.0000   1.0000   1.0000   1.0000   1.0000   1.0000
     1.0000   1.0000   1.0000   1.0000   1.0000   1.0000   1.0000   1.0000
     1.0000   1.0000   1.0000   1.0000   1.0000   1.0000   1.0000   1.0000
     1.0000   1.0000   1.0000   1.0000   1.0000   1.0000   1.0000   1.0000
     1.0000   1.0000   1.0000   1.0000   1.0000   1.0000   1.0000   1.0000
     1.0000   1.0000   1.0000   1.0000   1.0000   1.0000   1.0000   1.0000
     1.0000   1.0000   1.0000   1.0000   1.0000   1.0000   1.0000   1.0000
     1.0000   1.0000   1.0000   1.0000   1.0000   1.0000   1.0000   1.0000
     1.0000   1.0000   1.0000   1.0000   1.0000   1.0000   1.0000   1.0000
     1.0000   1.0000   1.0000   1.0000   1.0000   1.0000   1.0000   1.0000
     1.0000   1.0000   1.0000   1.0000   1.0000   1.0000   1.0000   1.0000
     1.0000   1.0000   1.0000   1.0000   1.0000   1.0000   1.0000   1.0000
     1.0000   1.0000   1.0000   1.0000   1.0000   1.0000   1.0001   1.0002
     1.0002   1.0104   1.0178   1.0324   1.0710   1.0732   1.0825   0.5927
     0.0144   0.0001   0.0000   0.0000   0.0000   0.0000   0.0000   0.0000
     0.0000   0.0000   0.0000   0.0000   0.0000   0.0000   0.0000   0.0000
     0.0000   0.0000   0.0000   0.0000   0.0000   0.0000   0.0000   0.0000
     0.0000   0.0000   0.0000   0.0000   0.0000   0.0000   0.0000   0.0000
     0.0000   0.0000   0.0000   0.0000   0.0000   0.0000   0.0000   0.0000
     0.0000   0.0000   0.0000   0.0000   0.0000

          k = 0.2500-0.4330 0.0000 (234399 PWs)   bands (ev):

   -23.6087 -23.6001 -23.5953 -23.5859 -23.5836 -23.5778 -23.5689 -23.5673
   -23.5642 -23.5619 -23.5606 -23.5554 -23.5522 -23.5490 -23.5476 -23.5446
   -23.5423 -23.5378 -23.5364 -23.5336 -23.5308 -23.5287 -23.5272 -23.5233
   -23.5192 -23.5154 -23.5139 -23.5116 -23.5093 -23.5052 -23.5022 -23.4992
   -23.4958 -23.4932 -23.4891 -23.4833 -23.4804 -23.4751 -23.4708 -23.4670
   -23.4642 -23.4606 -23.4567 -23.4465 -23.4431 -23.4328 -23.4280 -23.4268
   -23.4187 -23.4068 -23.4042 -23.3975 -23.3938 -23.3882 -23.3852 -23.3834
   -23.3797 -23.3777 -23.3741 -23.3734 -23.3700 -23.3680 -23.3657 -23.3634
   -23.3603 -23.3569 -23.3560 -23.3548 -23.3526 -23.3507 -23.3495 -23.3455
   -23.3435 -23.3400 -23.3364 -23.3343 -23.3289 -23.3242 -23.3225 -23.2966
   -23.2877 -23.2824 -23.2775 -23.2760 -23.2649 -23.2619 -23.2609 -23.2587
   -23.2541 -23.2521 -23.2517 -23.2485 -23.2467 -23.2437 -23.2406 -23.2398
   -23.2364 -23.2352 -23.2317 -23.2301 -23.2258 -23.2241 -23.2204 -23.2199
   -23.2182 -23.2157 -23.2116 -23.2043 -23.2022 -23.1996 -23.1983 -23.1961
   -23.1952 -23.1934 -23.1918 -23.1898 -23.1864 -23.1861 -23.1809 -23.1791
   -23.1776 -23.1756 -23.1739 -23.1726 -23.1712 -23.1662 -23.1625 -23.1601
   -23.1498 -23.1291 -23.1248 -23.1140 -23.1027 -23.0974 -23.0947 -23.0902
   -23.0894 -23.0861 -23.0855 -23.0810 -23.0789 -23.0759 -23.0743 -23.0717
   -23.0694 -23.0582 -23.0570 -23.0327 -23.0296 -23.0255 -23.0219 -23.0154
   -23.0130 -23.0103 -23.0072 -23.0045 -22.9949 -22.9844 -22.9817 -22.9704
   -11.6052 -11.4673 -11.4437 -11.0587 -11.0383 -10.7740 -10.6648 -10.6463
   -10.4279 -10.4124 -10.3240 -10.2958  -9.9300  -9.8242  -9.7984  -9.4012
    -8.9863  -8.6135  -8.5705  -8.5045  -8.0480  -8.0118  -7.8167  -7.8015
    -7.4732  -7.4507  -7.1685  -6.6405  -6.6188  -5.6939  -5.6399  -5.3416
    -5.0833  -4.7187  -4.7001  -4.3697  -4.1889  -4.1551  -4.0397  -3.8840
    -3.8521  -3.7578  -3.7417  -3.7267  -3.7150  -3.6967  -3.6900  -3.6140
    -3.5858  -3.4906  -3.4605  -3.4081  -3.3648  -3.2564  -3.2326  -3.1783
    -3.1621  -2.9269  -2.9006  -2.8357  -2.6996  -2.6791  -2.6180  -2.3056
    -1.9405  -1.6328  -1.6162  -1.5518  -1.2779  -1.2674  -1.0795  -1.0539
    -0.9721  -0.9204  -0.7703  -0.6054  -0.4067  -0.3815  -0.3609  -0.3307
    -0.2962  -0.2659  -0.2252  -0.1806  -0.0302   0.0329   0.1133   0.1649
     0.2146   0.2980   0.3581   0.4020   0.8585   0.9766   1.0227   1.0533
     1.0600   1.0962   1.3678   1.3871   1.4640   1.6103   1.7187   1.9933
     2.0167   2.0646   2.0680   2.0846   2.1002

     occupation numbers 
     1.0000   1.0000   1.0000   1.0000   1.0000   1.0000   1.0000   1.0000
     1.0000   1.0000   1.0000   1.0000   1.0000   1.0000   1.0000   1.0000
     1.0000   1.0000   1.0000   1.0000   1.0000   1.0000   1.0000   1.0000
     1.0000   1.0000   1.0000   1.0000   1.0000   1.0000   1.0000   1.0000
     1.0000   1.0000   1.0000   1.0000   1.0000   1.0000   1.0000   1.0000
     1.0000   1.0000   1.0000   1.0000   1.0000   1.0000   1.0000   1.0000
     1.0000   1.0000   1.0000   1.0000   1.0000   1.0000   1.0000   1.0000
     1.0000   1.0000   1.0000   1.0000   1.0000   1.0000   1.0000   1.0000
     1.0000   1.0000   1.0000   1.0000   1.0000   1.0000   1.0000   1.0000
     1.0000   1.0000   1.0000   1.0000   1.0000   1.0000   1.0000   1.0000
     1.0000   1.0000   1.0000   1.0000   1.0000   1.0000   1.0000   1.0000
     1.0000   1.0000   1.0000   1.0000   1.0000   1.0000   1.0000   1.0000
     1.0000   1.0000   1.0000   1.0000   1.0000   1.0000   1.0000   1.0000
     1.0000   1.0000   1.0000   1.0000   1.0000   1.0000   1.0000   1.0000
     1.0000   1.0000   1.0000   1.0000   1.0000   1.0000   1.0000   1.0000
     1.0000   1.0000   1.0000   1.0000   1.0000   1.0000   1.0000   1.0000
     1.0000   1.0000   1.0000   1.0000   1.0000   1.0000   1.0000   1.0000
     1.0000   1.0000   1.0000   1.0000   1.0000   1.0000   1.0000   1.0000
     1.0000   1.0000   1.0000   1.0000   1.0000   1.0000   1.0000   1.0000
     1.0000   1.0000   1.0000   1.0000   1.0000   1.0000   1.0000   1.0000
     1.0000   1.0000   1.0000   1.0000   1.0000   1.0000   1.0000   1.0000
     1.0000   1.0000   1.0000   1.0000   1.0000   1.0000   1.0000   1.0000
     1.0000   1.0000   1.0000   1.0000   1.0000   1.0000   1.0000   1.0000
     1.0000   1.0000   1.0000   1.0000   1.0000   1.0000   1.0000   1.0000
     1.0000   1.0000   1.0000   1.0000   1.0000   1.0000   1.0000   1.0000
     1.0000   1.0000   1.0000   1.0000   1.0000   1.0000   1.0000   1.0000
     1.0000   1.0000   1.0000   1.0000   1.0000   1.0000   1.0001   1.0002
     1.0003   1.0106   1.0145   1.0284   1.0721   1.0775   1.0825   0.5534
     0.0183   0.0001   0.0001   0.0000   0.0000   0.0000   0.0000   0.0000
     0.0000   0.0000   0.0000   0.0000   0.0000   0.0000   0.0000   0.0000
     0.0000   0.0000   0.0000   0.0000   0.0000   0.0000   0.0000   0.0000
     0.0000   0.0000   0.0000   0.0000   0.0000   0.0000   0.0000   0.0000
     0.0000   0.0000   0.0000   0.0000   0.0000   0.0000   0.0000   0.0000
     0.0000   0.0000   0.0000   0.0000   0.0000

          k = 0.2500-0.1443 0.0000 (234416 PWs)   bands (ev):

   -23.6082 -23.5998 -23.5966 -23.5881 -23.5835 -23.5781 -23.5686 -23.5660
   -23.5641 -23.5620 -23.5597 -23.5549 -23.5506 -23.5489 -23.5468 -23.5446
   -23.5422 -23.5387 -23.5358 -23.5337 -23.5316 -23.5293 -23.5262 -23.5227
   -23.5211 -23.5148 -23.5130 -23.5115 -23.5090 -23.5061 -23.5016 -23.5003
   -23.4968 -23.4915 -23.4877 -23.4852 -23.4815 -23.4747 -23.4725 -23.4675
   -23.4654 -23.4601 -23.4528 -23.4473 -23.4390 -23.4370 -23.4309 -23.4264
   -23.4217 -23.4030 -23.3998 -23.3971 -23.3935 -23.3893 -23.3846 -23.3834
   -23.3789 -23.3769 -23.3740 -23.3722 -23.3705 -23.3687 -23.3678 -23.3659
   -23.3646 -23.3621 -23.3599 -23.3583 -23.3563 -23.3548 -23.3529 -23.3490
   -23.3455 -23.3391 -23.3252 -23.3225 -23.3191 -23.3173 -23.3010 -23.2996
   -23.2971 -23.2791 -23.2753 -23.2748 -23.2703 -23.2666 -23.2642 -23.2625
   -23.2607 -23.2578 -23.2532 -23.2494 -23.2461 -23.2446 -23.2416 -23.2375
   -23.2366 -23.2332 -23.2320 -23.2280 -23.2261 -23.2254 -23.2220 -23.2200
   -23.2172 -23.2149 -23.2079 -23.2066 -23.2008 -23.1995 -23.1965 -23.1951
   -23.1935 -23.1914 -23.1897 -23.1891 -23.1874 -23.1867 -23.1845 -23.1825
   -23.1811 -23.1787 -23.1765 -23.1753 -23.1734 -23.1718 -23.1536 -23.1514
   -23.1352 -23.1339 -23.1213 -23.1203 -23.1051 -23.1035 -23.0947 -23.0935
   -23.0914 -23.0887 -23.0821 -23.0782 -23.0760 -23.0752 -23.0718 -23.0667
   -23.0637 -23.0568 -23.0460 -23.0436 -23.0382 -23.0325 -23.0293 -23.0185
   -23.0133 -23.0081 -23.0005 -22.9992 -22.9909 -22.9869 -22.9765 -22.9758
   -11.6713 -11.3930 -11.2513 -11.2473 -10.9890 -10.9759 -10.8400 -10.4637
   -10.4550 -10.1773 -10.1420 -10.1077 -10.0659 -10.0327  -9.7634  -9.7547
    -8.6236  -8.6007  -8.4102  -8.3839  -8.2618  -8.1945  -8.1724  -7.7093
    -7.6912  -7.1229  -6.8189  -6.8021  -6.1839  -6.1578  -5.8524  -5.2418
    -4.9164  -4.9077  -4.6137  -4.6044  -4.3750  -4.3594  -3.9508  -3.9350
    -3.8183  -3.8047  -3.7829  -3.7242  -3.7046  -3.6813  -3.6277  -3.4668
    -3.4518  -3.3913  -3.2702  -3.2353  -3.2163  -3.1969  -3.1684  -3.0579
    -3.0409  -2.9614  -2.9270  -2.9168  -2.8930  -2.6307  -2.6128  -2.4530
    -1.6595  -1.6142  -1.5080  -1.4980  -1.4157  -1.3362  -1.2996  -1.2355
    -0.9648  -0.9418  -0.9021  -0.6423  -0.6205  -0.5781  -0.5178  -0.4348
    -0.4158  -0.3363  -0.3339  -0.2407  -0.1245  -0.1111  -0.0073   0.0189
     0.0838   0.1729   0.9777   0.9880   1.0212   1.0582   1.1627   1.3001
     1.4407   1.4569   1.4904   1.7569   1.7806   1.8410   1.8594   1.9327
     1.9645   1.9793   1.9893   1.9951   2.0229

     occupation numbers 
     1.0000   1.0000   1.0000   1.0000   1.0000   1.0000   1.0000   1.0000
     1.0000   1.0000   1.0000   1.0000   1.0000   1.0000   1.0000   1.0000
     1.0000   1.0000   1.0000   1.0000   1.0000   1.0000   1.0000   1.0000
     1.0000   1.0000   1.0000   1.0000   1.0000   1.0000   1.0000   1.0000
     1.0000   1.0000   1.0000   1.0000   1.0000   1.0000   1.0000   1.0000
     1.0000   1.0000   1.0000   1.0000   1.0000   1.0000   1.0000   1.0000
     1.0000   1.0000   1.0000   1.0000   1.0000   1.0000   1.0000   1.0000
     1.0000   1.0000   1.0000   1.0000   1.0000   1.0000   1.0000   1.0000
     1.0000   1.0000   1.0000   1.0000   1.0000   1.0000   1.0000   1.0000
     1.0000   1.0000   1.0000   1.0000   1.0000   1.0000   1.0000   1.0000
     1.0000   1.0000   1.0000   1.0000   1.0000   1.0000   1.0000   1.0000
     1.0000   1.0000   1.0000   1.0000   1.0000   1.0000   1.0000   1.0000
     1.0000   1.0000   1.0000   1.0000   1.0000   1.0000   1.0000   1.0000
     1.0000   1.0000   1.0000   1.0000   1.0000   1.0000   1.0000   1.0000
     1.0000   1.0000   1.0000   1.0000   1.0000   1.0000   1.0000   1.0000
     1.0000   1.0000   1.0000   1.0000   1.0000   1.0000   1.0000   1.0000
     1.0000   1.0000   1.0000   1.0000   1.0000   1.0000   1.0000   1.0000
     1.0000   1.0000   1.0000   1.0000   1.0000   1.0000   1.0000   1.0000
     1.0000   1.0000   1.0000   1.0000   1.0000   1.0000   1.0000   1.0000
     1.0000   1.0000   1.0000   1.0000   1.0000   1.0000   1.0000   1.0000
     1.0000   1.0000   1.0000   1.0000   1.0000   1.0000   1.0000   1.0000
     1.0000   1.0000   1.0000   1.0000   1.0000   1.0000   1.0000   1.0000
     1.0000   1.0000   1.0000   1.0000   1.0000   1.0000   1.0000   1.0000
     1.0000   1.0000   1.0000   1.0000   1.0000   1.0000   1.0000   1.0000
     1.0000   1.0000   1.0000   1.0000   1.0000   1.0000   1.0000   1.0000
     1.0000   1.0000   1.0000   1.0000   1.0000   1.0000   1.0000   1.0000
     1.0000   1.0000   1.0000   1.0001   1.0001   1.0001   1.0002   1.0017
     1.0022   1.0068   1.0106   1.0120   1.0158   1.0833   1.0819   0.9238
     0.0001   0.0000   0.0000   0.0000   0.0000   0.0000   0.0000   0.0000
     0.0000   0.0000   0.0000   0.0000   0.0000   0.0000   0.0000   0.0000
     0.0000   0.0000   0.0000   0.0000   0.0000   0.0000   0.0000   0.0000
     0.0000   0.0000   0.0000   0.0000   0.0000   0.0000   0.0000   0.0000
     0.0000   0.0000   0.0000   0.0000   0.0000   0.0000   0.0000   0.0000
     0.0000   0.0000   0.0000   0.0000   0.0000

          k =-0.5000-0.2887 0.0000 (234418 PWs)   bands (ev):

   -23.6091 -23.6010 -23.5899 -23.5888 -23.5829 -23.5801 -23.5711 -23.5673
   -23.5646 -23.5607 -23.5597 -23.5570 -23.5502 -23.5471 -23.5457 -23.5455
   -23.5417 -23.5395 -23.5366 -23.5326 -23.5312 -23.5292 -23.5276 -23.5237
   -23.5175 -23.5165 -23.5146 -23.5110 -23.5093 -23.5058 -23.5034 -23.5023
   -23.4934 -23.4893 -23.4870 -23.4849 -23.4841 -23.4768 -23.4698 -23.4694
   -23.4596 -23.4578 -23.4543 -23.4515 -23.4415 -23.4370 -23.4283 -23.4255
   -23.4161 -23.4109 -23.4008 -23.3985 -23.3925 -23.3892 -23.3861 -23.3825
   -23.3805 -23.3792 -23.3751 -23.3693 -23.3689 -23.3674 -23.3653 -23.3644
   -23.3628 -23.3623 -23.3592 -23.3549 -23.3506 -23.3464 -23.3449 -23.3443
   -23.3426 -23.3405 -23.3362 -23.3348 -23.3337 -23.3298 -23.3045 -23.3036
   -23.2942 -23.2884 -23.2725 -23.2714 -23.2664 -23.2614 -23.2580 -23.2569
   -23.2561 -23.2526 -23.2513 -23.2499 -23.2463 -23.2432 -23.2418 -23.2392
   -23.2353 -23.2338 -23.2311 -23.2303 -23.2291 -23.2283 -23.2218 -23.2184
   -23.2150 -23.2131 -23.2112 -23.2078 -23.2011 -23.1997 -23.1976 -23.1959
   -23.1953 -23.1931 -23.1913 -23.1900 -23.1889 -23.1865 -23.1821 -23.1810
   -23.1797 -23.1775 -23.1710 -23.1689 -23.1666 -23.1653 -23.1638 -23.1627
   -23.1475 -23.1433 -23.1086 -23.1074 -23.1058 -23.1022 -23.0955 -23.0924
   -23.0880 -23.0869 -23.0831 -23.0823 -23.0804 -23.0764 -23.0743 -23.0706
   -23.0698 -23.0616 -23.0468 -23.0454 -23.0295 -23.0257 -23.0173 -23.0156
   -23.0150 -23.0125 -22.9993 -22.9990 -22.9966 -22.9952 -22.9749 -22.9729
   -11.5744 -11.5599 -11.2909 -11.2681 -10.7734 -10.7572 -10.7419 -10.7325
   -10.5228 -10.5094 -10.0897 -10.0855 -10.0653 -10.0499  -9.5917  -9.5570
    -8.8267  -8.7984  -8.3596  -8.3309  -8.3183  -8.2843  -7.7207  -7.7082
    -7.2618  -7.2465  -7.2342  -7.2114  -6.1144  -6.0724  -5.4590  -5.3823
    -5.0033  -4.9800  -4.3388  -4.3192  -4.2951  -4.2517  -3.9820  -3.9721
    -3.9454  -3.9288  -3.7820  -3.7737  -3.5986  -3.5837  -3.5385  -3.5126
    -3.4951  -3.4803  -3.4541  -3.4435  -3.3964  -3.3756  -3.2703  -3.2444
    -2.9838  -2.9768  -2.9327  -2.9096  -2.6972  -2.6780  -2.4760  -2.4383
    -1.8300  -1.7765  -1.4704  -1.4441  -1.3953  -1.3817  -1.1746  -1.1655
    -0.7548  -0.7232  -0.6956  -0.6906  -0.6446  -0.6246  -0.4666  -0.4543
    -0.1839  -0.0558   0.0341   0.1001   0.1068   0.1268   0.1527   0.1679
     0.1930   0.2643   0.3323   0.3717   0.3917   0.4237   1.0214   1.0559
     1.1056   1.1304   1.7028   1.7196   1.7854   1.8056   1.8653   1.8884
     1.8930   1.9086   1.9358   1.9648   2.0299

     occupation numbers 
     1.0000   1.0000   1.0000   1.0000   1.0000   1.0000   1.0000   1.0000
     1.0000   1.0000   1.0000   1.0000   1.0000   1.0000   1.0000   1.0000
     1.0000   1.0000   1.0000   1.0000   1.0000   1.0000   1.0000   1.0000
     1.0000   1.0000   1.0000   1.0000   1.0000   1.0000   1.0000   1.0000
     1.0000   1.0000   1.0000   1.0000   1.0000   1.0000   1.0000   1.0000
     1.0000   1.0000   1.0000   1.0000   1.0000   1.0000   1.0000   1.0000
     1.0000   1.0000   1.0000   1.0000   1.0000   1.0000   1.0000   1.0000
     1.0000   1.0000   1.0000   1.0000   1.0000   1.0000   1.0000   1.0000
     1.0000   1.0000   1.0000   1.0000   1.0000   1.0000   1.0000   1.0000
     1.0000   1.0000   1.0000   1.0000   1.0000   1.0000   1.0000   1.0000
     1.0000   1.0000   1.0000   1.0000   1.0000   1.0000   1.0000   1.0000
     1.0000   1.0000   1.0000   1.0000   1.0000   1.0000   1.0000   1.0000
     1.0000   1.0000   1.0000   1.0000   1.0000   1.0000   1.0000   1.0000
     1.0000   1.0000   1.0000   1.0000   1.0000   1.0000   1.0000   1.0000
     1.0000   1.0000   1.0000   1.0000   1.0000   1.0000   1.0000   1.0000
     1.0000   1.0000   1.0000   1.0000   1.0000   1.0000   1.0000   1.0000
     1.0000   1.0000   1.0000   1.0000   1.0000   1.0000   1.0000   1.0000
     1.0000   1.0000   1.0000   1.0000   1.0000   1.0000   1.0000   1.0000
     1.0000   1.0000   1.0000   1.0000   1.0000   1.0000   1.0000   1.0000
     1.0000   1.0000   1.0000   1.0000   1.0000   1.0000   1.0000   1.0000
     1.0000   1.0000   1.0000   1.0000   1.0000   1.0000   1.0000   1.0000
     1.0000   1.0000   1.0000   1.0000   1.0000   1.0000   1.0000   1.0000
     1.0000   1.0000   1.0000   1.0000   1.0000   1.0000   1.0000   1.0000
     1.0000   1.0000   1.0000   1.0000   1.0000   1.0000   1.0000   1.0000
     1.0000   1.0000   1.0000   1.0000   1.0000   1.0000   1.0000   1.0000
     1.0000   1.0000   1.0000   1.0000   1.0000   1.0000   1.0000   1.0000
     1.0000   1.0000   1.0000   1.0000   1.0000   1.0000   1.0000   1.0001
     1.0050   1.0056   1.0099   1.0131   1.0728   1.0777   0.9652   0.8941
     0.0033   0.0013   0.0000   0.0000   0.0000   0.0000   0.0000   0.0000
     0.0000   0.0000   0.0000   0.0000   0.0000   0.0000   0.0000   0.0000
     0.0000   0.0000   0.0000   0.0000   0.0000   0.0000   0.0000   0.0000
     0.0000   0.0000   0.0000   0.0000   0.0000   0.0000   0.0000   0.0000
     0.0000   0.0000   0.0000   0.0000   0.0000   0.0000   0.0000   0.0000
     0.0000   0.0000   0.0000   0.0000   0.0000

          k =-0.5000 0.0000 0.0000 (234399 PWs)   bands (ev):

   -23.6091 -23.6000 -23.5930 -23.5884 -23.5833 -23.5776 -23.5696 -23.5663
   -23.5655 -23.5618 -23.5595 -23.5568 -23.5521 -23.5482 -23.5459 -23.5449
   -23.5430 -23.5385 -23.5359 -23.5323 -23.5314 -23.5291 -23.5269 -23.5234
   -23.5190 -23.5162 -23.5139 -23.5110 -23.5091 -23.5067 -23.5028 -23.5001
   -23.4951 -23.4906 -23.4881 -23.4853 -23.4816 -23.4744 -23.4709 -23.4679
   -23.4637 -23.4592 -23.4545 -23.4491 -23.4430 -23.4335 -23.4285 -23.4262
   -23.4173 -23.4088 -23.4037 -23.3975 -23.3926 -23.3890 -23.3853 -23.3834
   -23.3801 -23.3758 -23.3743 -23.3723 -23.3705 -23.3685 -23.3666 -23.3644
   -23.3603 -23.3590 -23.3570 -23.3552 -23.3528 -23.3498 -23.3468 -23.3442
   -23.3422 -23.3402 -23.3355 -23.3341 -23.3322 -23.3247 -23.3213 -23.2961
   -23.2878 -23.2820 -23.2801 -23.2749 -23.2635 -23.2624 -23.2606 -23.2595
   -23.2547 -23.2523 -23.2513 -23.2474 -23.2452 -23.2438 -23.2411 -23.2392
   -23.2368 -23.2352 -23.2323 -23.2294 -23.2284 -23.2242 -23.2215 -23.2192
   -23.2170 -23.2151 -23.2103 -23.2055 -23.2023 -23.2001 -23.1977 -23.1965
   -23.1955 -23.1930 -23.1920 -23.1895 -23.1871 -23.1850 -23.1821 -23.1796
   -23.1779 -23.1752 -23.1738 -23.1722 -23.1707 -23.1658 -23.1624 -23.1600
   -23.1508 -23.1298 -23.1243 -23.1125 -23.1030 -23.0976 -23.0938 -23.0909
   -23.0884 -23.0869 -23.0849 -23.0820 -23.0799 -23.0756 -23.0747 -23.0711
   -23.0669 -23.0614 -23.0553 -23.0342 -23.0298 -23.0252 -23.0206 -23.0171
   -23.0123 -23.0106 -23.0079 -23.0017 -22.9956 -22.9854 -22.9812 -22.9704
   -11.6022 -11.4864 -11.4276 -11.0570 -11.0345 -10.7801 -10.6848 -10.6331
   -10.4276 -10.3979 -10.3277 -10.2998  -9.9193  -9.8333  -9.7976  -9.4089
    -8.9772  -8.6156  -8.5590  -8.5184  -8.0509  -8.0021  -7.8280  -7.8074
    -7.4727  -7.4398  -7.1610  -6.6518  -6.6152  -5.6974  -5.6356  -5.3437
    -5.0847  -4.7276  -4.6935  -4.3552  -4.2068  -4.1440  -4.0500  -3.8771
    -3.8484  -3.7721  -3.7449  -3.7276  -3.7129  -3.7063  -3.6861  -3.5997
    -3.5792  -3.5003  -3.4617  -3.3956  -3.3605  -3.2616  -3.2157  -3.1788
    -3.1711  -2.9348  -2.8957  -2.8292  -2.7012  -2.6816  -2.6267  -2.3076
    -1.9378  -1.6319  -1.6138  -1.5560  -1.2920  -1.2490  -1.0817  -1.0558
    -0.9840  -0.9128  -0.7734  -0.5981  -0.4150  -0.3727  -0.3577  -0.3427
    -0.3221  -0.2799  -0.2196  -0.1633  -0.0335   0.0341   0.1506   0.1669
     0.2322   0.2852   0.3553   0.3897   0.8738   0.9693   1.0196   1.0535
     1.0639   1.0951   1.3542   1.3919   1.4593   1.6213   1.7205   1.9955
     2.0060   2.0496   2.0671   2.0881   2.1067

     occupation numbers 
     1.0000   1.0000   1.0000   1.0000   1.0000   1.0000   1.0000   1.0000
     1.0000   1.0000   1.0000   1.0000   1.0000   1.0000   1.0000   1.0000
     1.0000   1.0000   1.0000   1.0000   1.0000   1.0000   1.0000   1.0000
     1.0000   1.0000   1.0000   1.0000   1.0000   1.0000   1.0000   1.0000
     1.0000   1.0000   1.0000   1.0000   1.0000   1.0000   1.0000   1.0000
     1.0000   1.0000   1.0000   1.0000   1.0000   1.0000   1.0000   1.0000
     1.0000   1.0000   1.0000   1.0000   1.0000   1.0000   1.0000   1.0000
     1.0000   1.0000   1.0000   1.0000   1.0000   1.0000   1.0000   1.0000
     1.0000   1.0000   1.0000   1.0000   1.0000   1.0000   1.0000   1.0000
     1.0000   1.0000   1.0000   1.0000   1.0000   1.0000   1.0000   1.0000
     1.0000   1.0000   1.0000   1.0000   1.0000   1.0000   1.0000   1.0000
     1.0000   1.0000   1.0000   1.0000   1.0000   1.0000   1.0000   1.0000
     1.0000   1.0000   1.0000   1.0000   1.0000   1.0000   1.0000   1.0000
     1.0000   1.0000   1.0000   1.0000   1.0000   1.0000   1.0000   1.0000
     1.0000   1.0000   1.0000   1.0000   1.0000   1.0000   1.0000   1.0000
     1.0000   1.0000   1.0000   1.0000   1.0000   1.0000   1.0000   1.0000
     1.0000   1.0000   1.0000   1.0000   1.0000   1.0000   1.0000   1.0000
     1.0000   1.0000   1.0000   1.0000   1.0000   1.0000   1.0000   1.0000
     1.0000   1.0000   1.0000   1.0000   1.0000   1.0000   1.0000   1.0000
     1.0000   1.0000   1.0000   1.0000   1.0000   1.0000   1.0000   1.0000
     1.0000   1.0000   1.0000   1.0000   1.0000   1.0000   1.0000   1.0000
     1.0000   1.0000   1.0000   1.0000   1.0000   1.0000   1.0000   1.0000
     1.0000   1.0000   1.0000   1.0000   1.0000   1.0000   1.0000   1.0000
     1.0000   1.0000   1.0000   1.0000   1.0000   1.0000   1.0000   1.0000
     1.0000   1.0000   1.0000   1.0000   1.0000   1.0000   1.0000   1.0000
     1.0000   1.0000   1.0000   1.0000   1.0000   1.0000   1.0000   1.0000
     1.0000   1.0000   1.0000   1.0000   1.0000   1.0000   1.0001   1.0002
     1.0002   1.0096   1.0153   1.0302   1.0716   1.0769   1.0832   0.5588
     0.0176   0.0001   0.0000   0.0000   0.0000   0.0000   0.0000   0.0000
     0.0000   0.0000   0.0000   0.0000   0.0000   0.0000   0.0000   0.0000
     0.0000   0.0000   0.0000   0.0000   0.0000   0.0000   0.0000   0.0000
     0.0000   0.0000   0.0000   0.0000   0.0000   0.0000   0.0000   0.0000
     0.0000   0.0000   0.0000   0.0000   0.0000   0.0000   0.0000   0.0000
     0.0000   0.0000   0.0000   0.0000   0.0000

          k =-0.5000-0.8660 0.0000 (234418 PWs)   bands (ev):

   -23.6088 -23.6002 -23.5937 -23.5887 -23.5839 -23.5752 -23.5680 -23.5663
   -23.5655 -23.5623 -23.5606 -23.5564 -23.5540 -23.5484 -23.5460 -23.5445
   -23.5442 -23.5376 -23.5363 -23.5332 -23.5307 -23.5278 -23.5259 -23.5237
   -23.5202 -23.5160 -23.5135 -23.5114 -23.5098 -23.5058 -23.5022 -23.4982
   -23.4960 -23.4929 -23.4892 -23.4840 -23.4800 -23.4748 -23.4701 -23.4671
   -23.4639 -23.4593 -23.4580 -23.4511 -23.4367 -23.4346 -23.4298 -23.4262
   -23.4174 -23.4069 -23.4043 -23.4006 -23.3910 -23.3893 -23.3856 -23.3827
   -23.3798 -23.3775 -23.3736 -23.3715 -23.3694 -23.3669 -23.3657 -23.3638
   -23.3619 -23.3597 -23.3583 -23.3577 -23.3510 -23.3488 -23.3448 -23.3442
   -23.3413 -23.3399 -23.3385 -23.3340 -23.3330 -23.3326 -23.3049 -23.3031
   -23.2964 -23.2850 -23.2723 -23.2689 -23.2666 -23.2613 -23.2593 -23.2569
   -23.2550 -23.2535 -23.2518 -23.2496 -23.2480 -23.2465 -23.2411 -23.2406
   -23.2386 -23.2337 -23.2305 -23.2265 -23.2261 -23.2241 -23.2228 -23.2193
   -23.2170 -23.2143 -23.2120 -23.2099 -23.2011 -23.1994 -23.1980 -23.1951
   -23.1931 -23.1922 -23.1901 -23.1887 -23.1878 -23.1862 -23.1843 -23.1813
   -23.1779 -23.1762 -23.1714 -23.1707 -23.1690 -23.1663 -23.1650 -23.1621
   -23.1417 -23.1408 -23.1133 -23.1123 -23.1090 -23.1033 -23.0959 -23.0901
   -23.0884 -23.0850 -23.0835 -23.0815 -23.0807 -23.0769 -23.0733 -23.0718
   -23.0656 -23.0626 -23.0450 -23.0433 -23.0313 -23.0213 -23.0192 -23.0189
   -23.0133 -23.0125 -23.0034 -22.9994 -22.9969 -22.9931 -22.9739 -22.9732
   -11.5832 -11.5476 -11.2850 -11.2827 -10.7754 -10.7590 -10.7387 -10.7267
   -10.5105 -10.4947 -10.1278 -10.0980 -10.0752 -10.0535  -9.5497  -9.5309
    -8.8753  -8.8402  -8.3288  -8.3114  -8.2720  -8.2592  -7.7713  -7.7329
    -7.2747  -7.2531  -7.2207  -7.2134  -6.0866  -6.0580  -5.4936  -5.3617
    -4.9850  -4.9783  -4.3773  -4.3296  -4.2911  -4.2574  -3.9832  -3.9544
    -3.9348  -3.9252  -3.7718  -3.7682  -3.6041  -3.5653  -3.5486  -3.5154
    -3.5075  -3.4833  -3.4560  -3.4452  -3.4029  -3.3646  -3.2892  -3.2732
    -3.0204  -2.9884  -2.9171  -2.9121  -2.6738  -2.6462  -2.4420  -2.4301
    -1.8553  -1.8005  -1.4792  -1.4575  -1.3740  -1.3245  -1.1914  -1.1625
    -0.7352  -0.7284  -0.6949  -0.6779  -0.6717  -0.6254  -0.4579  -0.4219
    -0.1451  -0.0607  -0.0034   0.0658   0.1080   0.1362   0.1474   0.1728
     0.2397   0.2705   0.3126   0.3355   0.3761   0.3870   1.0036   1.0159
     1.1390   1.1597   1.6517   1.6739   1.7745   1.7896   1.8703   1.9037
     1.9199   1.9252   1.9507   1.9736   2.0271

     occupation numbers 
     1.0000   1.0000   1.0000   1.0000   1.0000   1.0000   1.0000   1.0000
     1.0000   1.0000   1.0000   1.0000   1.0000   1.0000   1.0000   1.0000
     1.0000   1.0000   1.0000   1.0000   1.0000   1.0000   1.0000   1.0000
     1.0000   1.0000   1.0000   1.0000   1.0000   1.0000   1.0000   1.0000
     1.0000   1.0000   1.0000   1.0000   1.0000   1.0000   1.0000   1.0000
     1.0000   1.0000   1.0000   1.0000   1.0000   1.0000   1.0000   1.0000
     1.0000   1.0000   1.0000   1.0000   1.0000   1.0000   1.0000   1.0000
     1.0000   1.0000   1.0000   1.0000   1.0000   1.0000   1.0000   1.0000
     1.0000   1.0000   1.0000   1.0000   1.0000   1.0000   1.0000   1.0000
     1.0000   1.0000   1.0000   1.0000   1.0000   1.0000   1.0000   1.0000
     1.0000   1.0000   1.0000   1.0000   1.0000   1.0000   1.0000   1.0000
     1.0000   1.0000   1.0000   1.0000   1.0000   1.0000   1.0000   1.0000
     1.0000   1.0000   1.0000   1.0000   1.0000   1.0000   1.0000   1.0000
     1.0000   1.0000   1.0000   1.0000   1.0000   1.0000   1.0000   1.0000
     1.0000   1.0000   1.0000   1.0000   1.0000   1.0000   1.0000   1.0000
     1.0000   1.0000   1.0000   1.0000   1.0000   1.0000   1.0000   1.0000
     1.0000   1.0000   1.0000   1.0000   1.0000   1.0000   1.0000   1.0000
     1.0000   1.0000   1.0000   1.0000   1.0000   1.0000   1.0000   1.0000
     1.0000   1.0000   1.0000   1.0000   1.0000   1.0000   1.0000   1.0000
     1.0000   1.0000   1.0000   1.0000   1.0000   1.0000   1.0000   1.0000
     1.0000   1.0000   1.0000   1.0000   1.0000   1.0000   1.0000   1.0000
     1.0000   1.0000   1.0000   1.0000   1.0000   1.0000   1.0000   1.0000
     1.0000   1.0000   1.0000   1.0000   1.0000   1.0000   1.0000   1.0000
     1.0000   1.0000   1.0000   1.0000   1.0000   1.0000   1.0000   1.0000
     1.0000   1.0000   1.0000   1.0000   1.0000   1.0000   1.0000   1.0000
     1.0000   1.0000   1.0000   1.0000   1.0000   1.0000   1.0000   1.0000
     1.0000   1.0000   1.0000   1.0000   1.0000   1.0000   1.0000   1.0000
     1.0030   1.0047   1.0120   1.0127   1.0786   1.0828   0.9018   0.8765
     0.0051   0.0020   0.0000   0.0000   0.0000   0.0000   0.0000   0.0000
     0.0000   0.0000   0.0000   0.0000   0.0000   0.0000   0.0000   0.0000
     0.0000   0.0000   0.0000   0.0000   0.0000   0.0000   0.0000   0.0000
     0.0000   0.0000   0.0000   0.0000   0.0000   0.0000   0.0000   0.0000
     0.0000   0.0000   0.0000   0.0000   0.0000   0.0000   0.0000   0.0000
     0.0000   0.0000   0.0000   0.0000   0.0000

     the Fermi energy is    -2.2482 ev

!    total energy              =   -5084.00386500 Ry
     Harris-Foulkes estimate   =   -5084.00386501 Ry
     estimated scf accuracy    <          2.0E-09 Ry

     The total energy is the sum of the following terms:

     one-electron contribution =  -14218.99431598 Ry
     hartree contribution      =    7226.61386543 Ry
     xc contribution           =   -1359.84393210 Ry
     ewald contribution        =    3268.20244413 Ry
     smearing contrib. (-TS)   =       0.01807351 Ry

     convergence has been achieved in  15 iterations

     negative rho (up, down):  2.762E-03 0.000E+00

     Forces acting on atoms (cartesian axes, Ry/au):

     atom    1 type  1   force =     0.00518680   -0.01577994   -0.00420568
     atom    2 type  1   force =     0.00783272    0.00506425    0.00797280
     atom    3 type  1   force =    -0.01121618   -0.00366308   -0.00557868
     atom    4 type  1   force =     0.00620071    0.00263240    0.00300112
     atom    5 type  1   force =    -0.00155033    0.00015881   -0.00260814
     atom    6 type  1   force =     0.00352065   -0.00508777    0.00372455
     atom    7 type  1   force =    -0.00676260    0.00198096   -0.00690374
     atom    8 type  1   force =    -0.00952875    0.00650359    0.00325298
     atom    9 type  1   force =     0.01017984    0.00022732    0.00062792
     atom   10 type  1   force =    -0.00056336   -0.00249220   -0.00308465
     atom   11 type  1   force =    -0.00230290   -0.00628673   -0.00088426
     atom   12 type  1   force =     0.01325234    0.00120410    0.00459237
     atom   13 type  1   force =    -0.01570776    0.00143783   -0.00694431
     atom   14 type  1   force =    -0.00002173    0.00265010    0.00583091
     atom   15 type  1   force =     0.00331842    0.00594227   -0.00175746
     atom   16 type  1   force =    -0.00112791   -0.00344754   -0.00119281
     atom   17 type  1   force =     0.00055145    0.00459559   -0.00117520
     atom   18 type  1   force =     0.00600700   -0.00693329    0.00090530
     atom   19 type  1   force =    -0.00444326    0.00199865    0.00111364
     atom   20 type  1   force =     0.00875492   -0.00047726    0.00033152
     atom   21 type  1   force =    -0.01075216   -0.00193283   -0.00308795
     atom   22 type  1   force =     0.00167132    0.00138225    0.00991800
     atom   23 type  1   force =    -0.00314457    0.00832172   -0.00694135
     atom   24 type  1   force =     0.00019025   -0.00405356    0.00372483
     atom   25 type  1   force =    -0.00483238    0.00392490   -0.00681063
     atom   26 type  1   force =     0.00166027    0.00071844    0.00394728
     atom   27 type  1   force =    -0.00276480    0.00228806   -0.00170058
     atom   28 type  1   force =     0.00415541   -0.01045883    0.00201637
     atom   29 type  1   force =    -0.00514066   -0.00189168   -0.00268110
     atom   30 type  1   force =     0.00356536    0.00428655    0.00571043
     atom   31 type  1   force =     0.00008900    0.01136571   -0.00601181
     atom   32 type  1   force =     0.00372287   -0.00417879    0.00489833
     The non-local contrib.  to forces
     atom    1 type  1   force =    -0.00354854    0.00073060    0.17835106
     atom    2 type  1   force =    -0.00482942   -0.01565743   -0.18055403
     atom    3 type  1   force =    -0.00999690   -0.01812157    0.17668433
     atom    4 type  1   force =     0.00976060   -0.00874837   -0.17829483
     atom    5 type  1   force =     0.00342037   -0.01588594    0.18587284
     atom    6 type  1   force =    -0.01546534    0.00376499   -0.16816602
     atom    7 type  1   force =    -0.01724232    0.01238443    0.18197572
     atom    8 type  1   force =    -0.00865976   -0.00852718   -0.17802203
     atom    9 type  1   force =     0.01148973   -0.02261898    0.17083356
     atom   10 type  1   force =    -0.01165326   -0.00049932   -0.18090825
     atom   11 type  1   force =    -0.02934521   -0.00282052    0.16285788
     atom   12 type  1   force =    -0.01322313    0.00766326   -0.17846008
     atom   13 type  1   force =    -0.00980928    0.01588030    0.17444014
     atom   14 type  1   force =     0.01405332    0.00043935   -0.17267515
     atom   15 type  1   force =     0.02487990   -0.01591106    0.18573661
     atom   16 type  1   force =     0.01981700   -0.00987068   -0.17110300
     atom   17 type  1   force =     0.00952621   -0.00774529    0.17868250
     atom   18 type  1   force =     0.01585697   -0.00615342   -0.17289615
     atom   19 type  1   force =     0.00719313    0.00135687    0.16865587
     atom   20 type  1   force =     0.00355469    0.01918798   -0.17908027
     atom   21 type  1   force =    -0.01086213    0.03591615    0.17225696
     atom   22 type  1   force =    -0.00497941    0.02614592   -0.17558683
     atom   23 type  1   force =     0.01789159   -0.01199782    0.17691028
     atom   24 type  1   force =     0.01414941   -0.01199061   -0.18679790
     atom   25 type  1   force =    -0.00470959    0.01555053    0.17606800
     atom   26 type  1   force =    -0.01199726   -0.01245809   -0.17759002
     atom   27 type  1   force =     0.00091521   -0.01480455    0.17380496
     atom   28 type  1   force =     0.00393721   -0.02065770   -0.17078924
     atom   29 type  1   force =     0.01224433    0.01989772    0.17480867
     atom   30 type  1   force =     0.00700161    0.03507454   -0.17172220
     atom   31 type  1   force =    -0.01400097    0.01210095    0.18005455
     atom   32 type  1   force =    -0.00774864   -0.00210428   -0.18457699
     The ionic contribution  to forces
     atom    1 type  1   force =    -0.29572121   -0.56168924  -15.48330803
     atom    2 type  1   force =    -0.08938059   -0.38902660   14.86990719
     atom    3 type  1   force =    -0.73911424   -0.05376881  -17.14754114
     atom    4 type  1   force =    -0.40925840   -0.01899786   16.61755833
     atom    5 type  1   force =     0.14162431   -0.17631773  -17.31813100
     atom    6 type  1   force =     0.60618920    0.17416119   19.73960185
     atom    7 type  1   force =    -0.74132388    0.39643592  -13.42864272
     atom    8 type  1   force =    -0.84031837   -0.19735224   15.77672697
     atom    9 type  1   force =    -0.16474327   -0.11931291  -18.14472653
     atom   10 type  1   force =     0.30313360   -0.62725753   20.05290559
     atom   11 type  1   force =    -0.15902539   -0.56474801  -16.13300529
     atom   12 type  1   force =     0.02502339    0.59429273   18.83319361
     atom   13 type  1   force =    -0.34230202    0.19365108  -14.80725650
     atom   14 type  1   force =    -0.30614607    0.77551817   13.99321515
     atom   15 type  1   force =     0.56995104    0.62019331  -17.13462563
     atom   16 type  1   force =     0.34505657    0.01758604   15.20347468
     atom   17 type  1   force =     0.56499082   -0.23634401  -16.06850737
     atom   18 type  1   force =     1.24870992   -0.52071422   16.18321047
     atom   19 type  1   force =     0.17049958   -0.75181979  -19.31884965
     atom   20 type  1   force =     0.51686921    0.13969150   18.84826926
     atom   21 type  1   force =    -0.33095243    0.15031448  -18.16608890
     atom   22 type  1   force =    -0.40890196    0.78116955   11.67108064
     atom   23 type  1   force =     0.09506106    1.03676496  -13.92302080
     atom   24 type  1   force =    -0.04514013    0.04709353   16.13172425
     atom   25 type  1   force =    -0.53762514    0.10813754  -13.87260063
     atom   26 type  1   force =     0.03907872   -0.55275739   13.38802664
     atom   27 type  1   force =     0.36077567   -0.47868378  -14.10746772
     atom   28 type  1   force =     0.54509411   -0.54635245   16.84442408
     atom   29 type  1   force =    -0.25511749   -0.54185379  -18.47615185
     atom   30 type  1   force =    -0.04676775    0.62790443   15.67245748
     atom   31 type  1   force =     0.08296700    1.39852229  -15.42475011
     atom   32 type  1   force =     0.09681412   -0.72444032   15.12889768
     The local contribution  to forces
     atom    1 type  1   force =     0.30480164    0.54412967   15.29694001
     atom    2 type  1   force =     0.10288611    0.41002137  -14.67710202
     atom    3 type  1   force =     0.73685624    0.06826857   16.96076759
     atom    4 type  1   force =     0.40590737    0.03074425  -16.43198235
     atom    5 type  1   force =    -0.14663783    0.19243492   17.12508639
     atom    6 type  1   force =    -0.58659881   -0.18339814  -19.56221901
     atom    7 type  1   force =     0.75070842   -0.40680798   13.23599274
     atom    8 type  1   force =     0.83821489    0.21243906  -15.59154981
     atom    9 type  1   force =     0.16387123    0.14238512   17.96987941
     atom   10 type  1   force =    -0.29168091    0.62504185  -19.87020668
     atom   11 type  1   force =     0.18589664    0.56064940   15.96472547
     atom   12 type  1   force =     0.00262661   -0.60028910  -18.64495550
     atom   13 type  1   force =     0.33518150   -0.20811907   14.62158756
     atom   14 type  1   force =     0.29140745   -0.77289367  -13.81101644
     atom   15 type  1   force =    -0.59085900   -0.59786941   16.94298353
     atom   16 type  1   force =    -0.36618030   -0.01123227  -15.02987939
     atom   17 type  1   force =    -0.57381271    0.24890728   15.88482579
     atom   18 type  1   force =    -1.25747784    0.51950404  -16.00531821
     atom   19 type  1   force =    -0.18276944    0.75227268   19.14607211
     atom   20 type  1   force =    -0.51076601   -0.15934170  -18.66376720
     atom   21 type  1   force =     0.33012256   -0.18853175   17.98586805
     atom   22 type  1   force =     0.41529545   -0.80573369  -11.48208888
     atom   23 type  1   force =    -0.11600017   -1.01550272   13.73576550
     atom   24 type  1   force =     0.03109671   -0.03959269  -15.93750829
     atom   25 type  1   force =     0.53678112   -0.11916980   13.68608763
     atom   26 type  1   force =    -0.02490452    0.56560810  -13.20335936
     atom   27 type  1   force =    -0.36464529    0.49605768   13.92868718
     atom   28 type  1   force =    -0.54427373    0.55591756  -16.66715749
     atom   29 type  1   force =     0.23679596    0.51931693   18.29360014
     atom   30 type  1   force =     0.04396122   -0.65823220  -15.49070378
     atom   31 type  1   force =    -0.06877512   -1.39767466   15.23491376
     atom   32 type  1   force =    -0.08465620    0.72110854  -14.93580329
     The core correction contribution to forces
     atom    1 type  1   force =    -0.00036522    0.00103041    0.00381331
     atom    2 type  1   force =    -0.00087242   -0.00024612   -0.00427520
     atom    3 type  1   force =     0.00103430   -0.00001022    0.00452723
     atom    4 type  1   force =    -0.00021160   -0.00037032   -0.00427266
     atom    5 type  1   force =     0.00004800   -0.00007753    0.00460300
     atom    6 type  1   force =    -0.00059481    0.00034542   -0.00548294
     atom    7 type  1   force =     0.00107864   -0.00005795    0.00378333
     atom    8 type  1   force =     0.00120452   -0.00007464   -0.00390815
     atom    9 type  1   force =    -0.00045136   -0.00024127    0.00465216
     atom   10 type  1   force =    -0.00038092    0.00023575   -0.00487713
     atom   11 type  1   force =     0.00013247    0.00066027    0.00455469
     atom   12 type  1   force =    -0.00121444   -0.00045471   -0.00518612
     atom   13 type  1   force =     0.00120066    0.00001929    0.00429787
     atom   14 type  1   force =     0.00065088   -0.00042562   -0.00369696
     atom   15 type  1   force =    -0.00063812   -0.00050341    0.00417586
     atom   16 type  1   force =     0.00019866    0.00002846   -0.00369843
     atom   17 type  1   force =    -0.00012930   -0.00025104    0.00383126
     atom   18 type  1   force =    -0.00105226    0.00044017   -0.00409909
     atom   19 type  1   force =     0.00064542    0.00021612    0.00524757
     atom   20 type  1   force =    -0.00088575    0.00001462   -0.00510445
     atom   21 type  1   force =     0.00093857    0.00038484    0.00487813
     atom   22 type  1   force =     0.00025629   -0.00020795   -0.00349273
     atom   23 type  1   force =    -0.00012043   -0.00094763    0.00339616
     atom   24 type  1   force =     0.00008117    0.00042248   -0.00371691
     atom   25 type  1   force =     0.00073374   -0.00059287    0.00362931
     atom   26 type  1   force =    -0.00050528    0.00036009   -0.00313222
     atom   27 type  1   force =     0.00022440   -0.00025790    0.00329097
     atom   28 type  1   force =    -0.00058384    0.00065097   -0.00445917
     atom   29 type  1   force =     0.00095816    0.00077287    0.00507330
     atom   30 type  1   force =    -0.00062348   -0.00047198   -0.00433525
     atom   31 type  1   force =    -0.00007864   -0.00158581    0.00375716
     atom   32 type  1   force =    -0.00067071    0.00125689   -0.00363685
     The Hubbard contrib.    to forces
     atom    1 type  1   force =     0.00000000    0.00000000    0.00000000
     atom    2 type  1   force =     0.00000000    0.00000000    0.00000000
     atom    3 type  1   force =     0.00000000    0.00000000    0.00000000
     atom    4 type  1   force =     0.00000000    0.00000000    0.00000000
     atom    5 type  1   force =     0.00000000    0.00000000    0.00000000
     atom    6 type  1   force =     0.00000000    0.00000000    0.00000000
     atom    7 type  1   force =     0.00000000    0.00000000    0.00000000
     atom    8 type  1   force =     0.00000000    0.00000000    0.00000000
     atom    9 type  1   force =     0.00000000    0.00000000    0.00000000
     atom   10 type  1   force =     0.00000000    0.00000000    0.00000000
     atom   11 type  1   force =     0.00000000    0.00000000    0.00000000
     atom   12 type  1   force =     0.00000000    0.00000000    0.00000000
     atom   13 type  1   force =     0.00000000    0.00000000    0.00000000
     atom   14 type  1   force =     0.00000000    0.00000000    0.00000000
     atom   15 type  1   force =     0.00000000    0.00000000    0.00000000
     atom   16 type  1   force =     0.00000000    0.00000000    0.00000000
     atom   17 type  1   force =     0.00000000    0.00000000    0.00000000
     atom   18 type  1   force =     0.00000000    0.00000000    0.00000000
     atom   19 type  1   force =     0.00000000    0.00000000    0.00000000
     atom   20 type  1   force =     0.00000000    0.00000000    0.00000000
     atom   21 type  1   force =     0.00000000    0.00000000    0.00000000
     atom   22 type  1   force =     0.00000000    0.00000000    0.00000000
     atom   23 type  1   force =     0.00000000    0.00000000    0.00000000
     atom   24 type  1   force =     0.00000000    0.00000000    0.00000000
     atom   25 type  1   force =     0.00000000    0.00000000    0.00000000
     atom   26 type  1   force =     0.00000000    0.00000000    0.00000000
     atom   27 type  1   force =     0.00000000    0.00000000    0.00000000
     atom   28 type  1   force =     0.00000000    0.00000000    0.00000000
     atom   29 type  1   force =     0.00000000    0.00000000    0.00000000
     atom   30 type  1   force =     0.00000000    0.00000000    0.00000000
     atom   31 type  1   force =     0.00000000    0.00000000    0.00000000
     atom   32 type  1   force =     0.00000000    0.00000000    0.00000000
     The SCF correction term to forces
     atom    1 type  1   force =     0.00001999    0.00001846   -0.00000601
     atom    2 type  1   force =     0.00002890   -0.00002714   -0.00000713
     atom    3 type  1   force =     0.00000428   -0.00003122   -0.00002067
     atom    4 type  1   force =     0.00000260    0.00000454   -0.00001135
     atom    5 type  1   force =    -0.00000533    0.00000492   -0.00004336
     atom    6 type  1   force =    -0.00000973    0.00003860   -0.00001331
     atom    7 type  1   force =     0.00001640    0.00002637   -0.00001679
     atom    8 type  1   force =     0.00002983    0.00001843    0.00000202
     atom    9 type  1   force =     0.00001336    0.00001520   -0.00001467
     atom   10 type  1   force =     0.00001799   -0.00001312   -0.00000216
     atom   11 type  1   force =     0.00003844   -0.00002804   -0.00002099
     atom   12 type  1   force =     0.00003976   -0.00000825   -0.00000352
     atom   13 type  1   force =     0.00002123    0.00000607   -0.00001737
     atom   14 type  1   force =     0.00001255    0.00001171    0.00000033
     atom   15 type  1   force =    -0.00001554    0.00003268   -0.00003180
     atom   16 type  1   force =    -0.00001998    0.00004074    0.00000935
     atom   17 type  1   force =    -0.00002372    0.00002849   -0.00001135
     atom   18 type  1   force =    -0.00002993   -0.00001003    0.00000429
     atom   19 type  1   force =    -0.00001210   -0.00002739   -0.00001623
     atom   20 type  1   force =    -0.00001736   -0.00002983    0.00001019
     atom   21 type  1   force =     0.00000113   -0.00001673   -0.00000619
     atom   22 type  1   force =     0.00000081    0.00000825    0.00000182
     atom   23 type  1   force =     0.00002323    0.00000476    0.00000352
     atom   24 type  1   force =     0.00000294    0.00001357    0.00001969
     atom   25 type  1   force =    -0.00001264   -0.00000067    0.00000108
     atom   26 type  1   force =    -0.00001153   -0.00003443   -0.00000174
     atom   27 type  1   force =    -0.00003493   -0.00002356   -0.00001995
     atom   28 type  1   force =    -0.00001848   -0.00001737   -0.00000580
     atom   29 type  1   force =    -0.00002176   -0.00002558   -0.00001534
     atom   30 type  1   force =    -0.00000639    0.00001159    0.00001020
     atom   31 type  1   force =    -0.00002341    0.00000278    0.00000885
     atom   32 type  1   force =    -0.00001585    0.00000022    0.00001381

     Total force =     0.053931     Total SCF correction =     0.000186


     Computing stress (Cartesian axis) and pressure


     negative rho (up, down):  2.762E-03 0.000E+00
          total   stress  (Ry/bohr**3)                   (kbar)     P=   -2.51
  -0.00001422  -0.00000239   0.00000191         -2.09     -0.35      0.28
  -0.00000239  -0.00001563  -0.00000053         -0.35     -2.30     -0.08
   0.00000191  -0.00000053  -0.00002134          0.28     -0.08     -3.14

     kinetic stress (kbar)   1206.74      0.15     -0.03
                                0.15   1206.78      0.00
                               -0.03      0.00   1218.92

     local   stress (kbar) -45043.49     40.76    -15.12
                               40.76 -45022.51      3.32
                              -15.12      3.32  45459.76

     nonloc. stress (kbar)   1507.56     -0.24      0.06
                               -0.24   1507.37      0.00
                                0.06      0.00   1477.68

     hartree stress (kbar)  23635.38    -15.17      5.38
                              -15.17  23627.47     -1.22
                                5.38     -1.22 -20182.47

     exc-cor stress (kbar)   1920.20     -0.02      0.00
                               -0.02   1920.19     -0.00
                                0.00     -0.00   1918.12

     corecor stress (kbar)  -2871.16      0.02     -0.01
                                0.02  -2871.15      0.00
                               -0.01      0.00  -2869.91

     ewald   stress (kbar)  19642.67    -25.86      9.99
                              -25.86  19629.54     -2.18
                                9.99     -2.18 -27025.23

     hubbard stress (kbar)      0.00      0.00      0.00
                                0.00      0.00      0.00
                                0.00      0.00      0.00

     london  stress (kbar)      0.00      0.00      0.00
                                0.00      0.00      0.00
                                0.00      0.00      0.00

     DFT-D3  stress (kbar)      0.00      0.00      0.00
                                0.00      0.00      0.00
                                0.00      0.00      0.00

     XDM     stress (kbar)      0.00      0.00      0.00
                                0.00      0.00      0.00
                                0.00      0.00      0.00

     dft-nl  stress (kbar)      0.00      0.00      0.00
                                0.00      0.00      0.00
                                0.00      0.00      0.00

     TS-vdW  stress (kbar)      0.00      0.00      0.00
                                0.00      0.00      0.00
                                0.00      0.00      0.00



     Writing output data file scf.save/
 
     init_run     :     12.90s CPU     13.47s WALL (       1 calls)
     electrons    :    413.27s CPU    419.93s WALL (       1 calls)
     forces       :      5.48s CPU      5.64s WALL (       1 calls)
     stress       :     28.57s CPU     28.85s WALL (       1 calls)

     Called by init_run:
     wfcinit      :      7.03s CPU      7.21s WALL (       1 calls)
     wfcinit:atom :      0.05s CPU      0.06s WALL (       1 calls)
     wfcinit:wfcr :      6.79s CPU      6.92s WALL (       1 calls)
     potinit      :      1.55s CPU      1.61s WALL (       1 calls)
     hinit0       :      1.56s CPU      1.77s WALL (       1 calls)

     Called by electrons:
     c_bands      :    340.86s CPU    345.51s WALL (      15 calls)
     sum_band     :     54.32s CPU     55.08s WALL (      15 calls)
     v_of_rho     :     11.38s CPU     11.86s WALL (      16 calls)
     v_h          :      1.18s CPU      1.24s WALL (      16 calls)
     v_xc         :     11.42s CPU     11.89s WALL (      18 calls)
     newd         :      2.84s CPU      3.25s WALL (      16 calls)
     mix_rho      :      2.73s CPU      2.83s WALL (      15 calls)

     Called by c_bands:
     init_us_2    :      1.61s CPU      1.65s WALL (      31 calls)
     cegterg      :    314.69s CPU    318.95s WALL (      15 calls)

     Called by sum_band:
     sum_band:bec :      0.02s CPU      0.02s WALL (      15 calls)
     addusdens    :      2.67s CPU      3.07s WALL (      15 calls)

     Called by *egterg:
     h_psi        :    213.15s CPU    214.97s WALL (     102 calls)
     s_psi        :     16.28s CPU     16.33s WALL (     102 calls)
     g_psi        :      0.46s CPU      0.47s WALL (      86 calls)
     cdiaghg      :     38.18s CPU     38.95s WALL (     101 calls)
     cegterg:over :     22.61s CPU     22.75s WALL (      86 calls)
     cegterg:upda :     17.29s CPU     17.86s WALL (      86 calls)
     cegterg:last :      6.35s CPU      6.38s WALL (      15 calls)
     cdiaghg:chol :      1.33s CPU      1.38s WALL (     101 calls)
     cdiaghg:inve :      0.65s CPU      0.65s WALL (     101 calls)
     cdiaghg:para :      5.59s CPU      6.06s WALL (     202 calls)

     Called by h_psi:
     h_psi:pot    :    212.21s CPU    213.37s WALL (     102 calls)
     h_psi:calbec :     15.02s CPU     15.12s WALL (     102 calls)
     vloc_psi     :    180.84s CPU    181.85s WALL (     102 calls)
     add_vuspsi   :     16.35s CPU     16.39s WALL (     102 calls)

     General routines
     calbec       :     22.19s CPU     22.34s WALL (     122 calls)
     fft          :     12.08s CPU     12.94s WALL (     231 calls)
     ffts         :      0.51s CPU      0.54s WALL (      31 calls)
     fftw         :    182.92s CPU    183.93s WALL (   25333 calls)
     interpolate  :      1.19s CPU      1.25s WALL (      16 calls)
 
     Parallel routines
     fft_scatt_xy :     49.03s CPU     49.28s WALL (   25595 calls)
     fft_scatt_yz :     36.27s CPU     37.21s WALL (   25595 calls)
 
     PWSCF        :   7m41.93s CPU   7m51.61s WALL

 
   This run was terminated on:  20: 0:57  17Feb2020            

=------------------------------------------------------------------------------=
   JOB DONE.
=------------------------------------------------------------------------------=
