
     Program PWSCF v.6.3 starts on  1Nov2020 at 17:49:39 

     This program is part of the open-source Quantum ESPRESSO suite
     for quantum simulation of materials; please cite
         "P. Giannozzi et al., J. Phys.:Condens. Matter 21 395502 (2009);
         "P. Giannozzi et al., J. Phys.:Condens. Matter 29 465901 (2017);
          URL http://www.quantum-espresso.org", 
     in publications or presentations arising from this work. More details at
     http://www.quantum-espresso.org/quote

     Parallel version (MPI), running on    32 processors

     MPI processes distributed on     1 nodes
     K-points division:     npool     =       4
     R & G space division:  proc/nbgrp/npool/nimage =       8
     Reading input from scf.in
Warning: card &IONS ignored
Warning: card / ignored
Warning: card &CELL ignored
Warning: card / ignored

     Current dimensions of program PWSCF are:
     Max number of different atomic species (ntypx) = 10
     Max number of k-points (npk) =  40000
     Max angular momentum in pseudopotentials (lmaxx) =  3

     Subspace diagonalization in iterative solution of the eigenvalue problem:
     one sub-group per band group will be used
     scalapack distributed-memory algorithm (size of sub-group:  2*  2 procs)

 
     Parallelization info
     --------------------
     sticks:   dense  smooth     PW     G-vecs:    dense   smooth      PW
     Min         279     140     40                 8707     3086     492
     Max         280     141     43                 8709     3088     494
     Sum        2233    1123    337                69665    24693    3943
 


     bravais-lattice index     =            0
     lattice parameter (alat)  =       8.6588  a.u.
     unit-cell volume          =     459.0470 (a.u.)^3
     number of atoms/cell      =            2
     number of atomic types    =            1
     number of electrons       =        28.00
     number of Kohn-Sham states=           18
     kinetic-energy cutoff     =      54.0000  Ry
     charge density cutoff     =     432.0000  Ry
     convergence threshold     =      1.0E-10
     mixing beta               =       0.7000
     number of iterations used =            8  plain     mixing
     Exchange-correlation      = SLA  PW   PSX  PSC ( 1  4 10  8 0 0)

     celldm(1)=   8.658793  celldm(2)=   0.000000  celldm(3)=   0.000000
     celldm(4)=   0.000000  celldm(5)=   0.000000  celldm(6)=   0.000000

     crystal axes: (cart. coord. in units of alat)
               a(1) = (   0.000000   0.707107   0.707107 )  
               a(2) = (   0.707107   0.000000   0.707107 )  
               a(3) = (   0.707107   0.707107   0.000000 )  

     reciprocal axes: (cart. coord. in units 2 pi/alat)
               b(1) = ( -0.707107  0.707107  0.707107 )  
               b(2) = (  0.707107 -0.707107  0.707107 )  
               b(3) = (  0.707107  0.707107 -0.707107 )  


     PseudoPot. # 1 for Sn read from file:
     /n/home08/xiey/q-e/pseudo/sn_pbesol_v1.4.uspp.F.UPF
     MD5 check sum: 463fec1d5456f1e96ec1bfcad4b7b038
     Pseudo is Ultrasoft + core correction, Zval = 14.0
     Generated by new atomic code, or converted to UPF format
     Using radial grid of  891 points,  6 beta functions with: 
                l(1) =   0
                l(2) =   0
                l(3) =   1
                l(4) =   1
                l(5) =   2
                l(6) =   2
     Q(r) pseudized with  8 coefficients,  rinner =    1.350   1.350   1.350
                                                       1.350   1.350

     atomic species   valence    mass     pseudopotential
        Sn            14.00   118.71000     Sn( 1.00)

     48 Sym. Ops., with inversion, found (24 have fractional translation)


                                    s                        frac. trans.

      isym =  1     identity                                     

 cryst.   s( 1) = (     1          0          0      )
                  (     0          1          0      )
                  (     0          0          1      )

 cart.    s( 1) = (  1.0000000  0.0000000  0.0000000 )
                  (  0.0000000  1.0000000  0.0000000 )
                  (  0.0000000  0.0000000  1.0000000 )


      isym =  2     180 deg rotation - cart. axis [0,0,1]        

 cryst.   s( 2) = (     0          1         -1      )
                  (     1          0         -1      )
                  (     0          0         -1      )

 cart.    s( 2) = ( -1.0000000  0.0000000  0.0000000 )
                  (  0.0000000 -1.0000000  0.0000000 )
                  (  0.0000000  0.0000000  1.0000000 )


      isym =  3     180 deg rotation - cart. axis [0,1,0]        

 cryst.   s( 3) = (     0         -1          1      )
                  (     0         -1          0      )
                  (     1         -1          0      )

 cart.    s( 3) = ( -1.0000000  0.0000000  0.0000000 )
                  (  0.0000000  1.0000000  0.0000000 )
                  (  0.0000000  0.0000000 -1.0000000 )


      isym =  4     180 deg rotation - cart. axis [1,0,0]        

 cryst.   s( 4) = (    -1          0          0      )
                  (    -1          0          1      )
                  (    -1          1          0      )

 cart.    s( 4) = (  1.0000000  0.0000000  0.0000000 )
                  (  0.0000000 -1.0000000  0.0000000 )
                  (  0.0000000  0.0000000 -1.0000000 )


      isym =  5     180 deg rotation - cart. axis [1,1,0]        

 cryst.   s( 5) = (    -1          0          1      )    f =( -0.2500000 )
                  (     0         -1          1      )       ( -0.2500000 )
                  (     0          0          1      )       ( -0.2500000 )

 cart.    s( 5) = (  0.0000000  1.0000000  0.0000000 )    f =( -0.3535534 )
                  (  1.0000000  0.0000000  0.0000000 )       ( -0.3535534 )
                  (  0.0000000  0.0000000 -1.0000000 )       ( -0.3535534 )


      isym =  6     180 deg rotation - cart. axis [1,-1,0]       

 cryst.   s( 6) = (     0         -1          0      )    f =( -0.2500000 )
                  (    -1          0          0      )       ( -0.2500000 )
                  (     0          0         -1      )       ( -0.2500000 )

 cart.    s( 6) = (  0.0000000 -1.0000000  0.0000000 )    f =( -0.3535534 )
                  ( -1.0000000  0.0000000  0.0000000 )       ( -0.3535534 )
                  (  0.0000000  0.0000000 -1.0000000 )       ( -0.3535534 )


      isym =  7      90 deg rotation - cart. axis [0,0,-1]       

 cryst.   s( 7) = (     0          1          0      )    f =( -0.2500000 )
                  (     0          1         -1      )       ( -0.2500000 )
                  (    -1          1          0      )       ( -0.2500000 )

 cart.    s( 7) = (  0.0000000  1.0000000  0.0000000 )    f =( -0.3535534 )
                  ( -1.0000000  0.0000000  0.0000000 )       ( -0.3535534 )
                  (  0.0000000  0.0000000  1.0000000 )       ( -0.3535534 )


      isym =  8      90 deg rotation - cart. axis [0,0,1]        

 cryst.   s( 8) = (     1          0         -1      )    f =( -0.2500000 )
                  (     1          0          0      )       ( -0.2500000 )
                  (     1         -1          0      )       ( -0.2500000 )

 cart.    s( 8) = (  0.0000000 -1.0000000  0.0000000 )    f =( -0.3535534 )
                  (  1.0000000  0.0000000  0.0000000 )       ( -0.3535534 )
                  (  0.0000000  0.0000000  1.0000000 )       ( -0.3535534 )


      isym =  9     180 deg rotation - cart. axis [1,0,1]        

 cryst.   s( 9) = (    -1          1          0      )    f =( -0.2500000 )
                  (     0          1          0      )       ( -0.2500000 )
                  (     0          1         -1      )       ( -0.2500000 )

 cart.    s( 9) = (  0.0000000  0.0000000  1.0000000 )    f =( -0.3535534 )
                  (  0.0000000 -1.0000000  0.0000000 )       ( -0.3535534 )
                  (  1.0000000  0.0000000  0.0000000 )       ( -0.3535534 )


      isym = 10     180 deg rotation - cart. axis [-1,0,1]       

 cryst.   s(10) = (     0          0         -1      )    f =( -0.2500000 )
                  (     0         -1          0      )       ( -0.2500000 )
                  (    -1          0          0      )       ( -0.2500000 )

 cart.    s(10) = (  0.0000000  0.0000000 -1.0000000 )    f =( -0.3535534 )
                  (  0.0000000 -1.0000000  0.0000000 )       ( -0.3535534 )
                  ( -1.0000000  0.0000000  0.0000000 )       ( -0.3535534 )


      isym = 11      90 deg rotation - cart. axis [0,1,0]        

 cryst.   s(11) = (     0          0          1      )    f =( -0.2500000 )
                  (    -1          0          1      )       ( -0.2500000 )
                  (     0         -1          1      )       ( -0.2500000 )

 cart.    s(11) = (  0.0000000  0.0000000  1.0000000 )    f =( -0.3535534 )
                  (  0.0000000  1.0000000  0.0000000 )       ( -0.3535534 )
                  ( -1.0000000  0.0000000  0.0000000 )       ( -0.3535534 )


      isym = 12      90 deg rotation - cart. axis [0,-1,0]       

 cryst.   s(12) = (     1         -1          0      )    f =( -0.2500000 )
                  (     1          0         -1      )       ( -0.2500000 )
                  (     1          0          0      )       ( -0.2500000 )

 cart.    s(12) = (  0.0000000  0.0000000 -1.0000000 )    f =( -0.3535534 )
                  (  0.0000000  1.0000000  0.0000000 )       ( -0.3535534 )
                  (  1.0000000  0.0000000  0.0000000 )       ( -0.3535534 )


      isym = 13     180 deg rotation - cart. axis [0,1,1]        

 cryst.   s(13) = (     1          0          0      )    f =( -0.2500000 )
                  (     1         -1          0      )       ( -0.2500000 )
                  (     1          0         -1      )       ( -0.2500000 )

 cart.    s(13) = ( -1.0000000  0.0000000  0.0000000 )    f =( -0.3535534 )
                  (  0.0000000  0.0000000  1.0000000 )       ( -0.3535534 )
                  (  0.0000000  1.0000000  0.0000000 )       ( -0.3535534 )


      isym = 14     180 deg rotation - cart. axis [0,1,-1]       

 cryst.   s(14) = (    -1          0          0      )    f =( -0.2500000 )
                  (     0          0         -1      )       ( -0.2500000 )
                  (     0         -1          0      )       ( -0.2500000 )

 cart.    s(14) = ( -1.0000000  0.0000000  0.0000000 )    f =( -0.3535534 )
                  (  0.0000000  0.0000000 -1.0000000 )       ( -0.3535534 )
                  (  0.0000000 -1.0000000  0.0000000 )       ( -0.3535534 )


      isym = 15      90 deg rotation - cart. axis [-1,0,0]       

 cryst.   s(15) = (     0         -1          1      )    f =( -0.2500000 )
                  (     0          0          1      )       ( -0.2500000 )
                  (    -1          0          1      )       ( -0.2500000 )

 cart.    s(15) = (  1.0000000  0.0000000  0.0000000 )    f =( -0.3535534 )
                  (  0.0000000  0.0000000  1.0000000 )       ( -0.3535534 )
                  (  0.0000000 -1.0000000  0.0000000 )       ( -0.3535534 )


      isym = 16      90 deg rotation - cart. axis [1,0,0]        

 cryst.   s(16) = (     0          1         -1      )    f =( -0.2500000 )
                  (    -1          1          0      )       ( -0.2500000 )
                  (     0          1          0      )       ( -0.2500000 )

 cart.    s(16) = (  1.0000000  0.0000000  0.0000000 )    f =( -0.3535534 )
                  (  0.0000000  0.0000000 -1.0000000 )       ( -0.3535534 )
                  (  0.0000000  1.0000000  0.0000000 )       ( -0.3535534 )


      isym = 17     120 deg rotation - cart. axis [-1,-1,-1]     

 cryst.   s(17) = (     0          0          1      )
                  (     1          0          0      )
                  (     0          1          0      )

 cart.    s(17) = (  0.0000000  1.0000000  0.0000000 )
                  (  0.0000000  0.0000000  1.0000000 )
                  (  1.0000000  0.0000000  0.0000000 )


      isym = 18     120 deg rotation - cart. axis [-1,1,1]       

 cryst.   s(18) = (     1         -1          0      )
                  (     0         -1          1      )
                  (     0         -1          0      )

 cart.    s(18) = (  0.0000000 -1.0000000  0.0000000 )
                  (  0.0000000  0.0000000  1.0000000 )
                  ( -1.0000000  0.0000000  0.0000000 )


      isym = 19     120 deg rotation - cart. axis [1,1,-1]       

 cryst.   s(19) = (    -1          1          0      )
                  (    -1          0          0      )
                  (    -1          0          1      )

 cart.    s(19) = (  0.0000000  1.0000000  0.0000000 )
                  (  0.0000000  0.0000000 -1.0000000 )
                  ( -1.0000000  0.0000000  0.0000000 )


      isym = 20     120 deg rotation - cart. axis [1,-1,1]       

 cryst.   s(20) = (     0          0         -1      )
                  (     0          1         -1      )
                  (     1          0         -1      )

 cart.    s(20) = (  0.0000000 -1.0000000  0.0000000 )
                  (  0.0000000  0.0000000 -1.0000000 )
                  (  1.0000000  0.0000000  0.0000000 )


      isym = 21     120 deg rotation - cart. axis [1,1,1]        

 cryst.   s(21) = (     0          1          0      )
                  (     0          0          1      )
                  (     1          0          0      )

 cart.    s(21) = (  0.0000000  0.0000000  1.0000000 )
                  (  1.0000000  0.0000000  0.0000000 )
                  (  0.0000000  1.0000000  0.0000000 )


      isym = 22     120 deg rotation - cart. axis [-1,1,-1]      

 cryst.   s(22) = (    -1          0          1      )
                  (    -1          1          0      )
                  (    -1          0          0      )

 cart.    s(22) = (  0.0000000  0.0000000  1.0000000 )
                  ( -1.0000000  0.0000000  0.0000000 )
                  (  0.0000000 -1.0000000  0.0000000 )


      isym = 23     120 deg rotation - cart. axis [1,-1,-1]      

 cryst.   s(23) = (     1          0         -1      )
                  (     0          0         -1      )
                  (     0          1         -1      )

 cart.    s(23) = (  0.0000000  0.0000000 -1.0000000 )
                  ( -1.0000000  0.0000000  0.0000000 )
                  (  0.0000000  1.0000000  0.0000000 )


      isym = 24     120 deg rotation - cart. axis [-1,-1,1]      

 cryst.   s(24) = (     0         -1          0      )
                  (     1         -1          0      )
                  (     0         -1          1      )

 cart.    s(24) = (  0.0000000  0.0000000 -1.0000000 )
                  (  1.0000000  0.0000000  0.0000000 )
                  (  0.0000000 -1.0000000  0.0000000 )


      isym = 25     inversion                                    

 cryst.   s(25) = (    -1          0          0      )    f =( -0.2500000 )
                  (     0         -1          0      )       ( -0.2500000 )
                  (     0          0         -1      )       ( -0.2500000 )

 cart.    s(25) = ( -1.0000000  0.0000000  0.0000000 )    f =( -0.3535534 )
                  (  0.0000000 -1.0000000  0.0000000 )       ( -0.3535534 )
                  (  0.0000000  0.0000000 -1.0000000 )       ( -0.3535534 )


      isym = 26     inv. 180 deg rotation - cart. axis [0,0,1]   

 cryst.   s(26) = (     0         -1          1      )    f =( -0.2500000 )
                  (    -1          0          1      )       ( -0.2500000 )
                  (     0          0          1      )       ( -0.2500000 )

 cart.    s(26) = (  1.0000000  0.0000000  0.0000000 )    f =( -0.3535534 )
                  (  0.0000000  1.0000000  0.0000000 )       ( -0.3535534 )
                  (  0.0000000  0.0000000 -1.0000000 )       ( -0.3535534 )


      isym = 27     inv. 180 deg rotation - cart. axis [0,1,0]   

 cryst.   s(27) = (     0          1         -1      )    f =( -0.2500000 )
                  (     0          1          0      )       ( -0.2500000 )
                  (    -1          1          0      )       ( -0.2500000 )

 cart.    s(27) = (  1.0000000  0.0000000  0.0000000 )    f =( -0.3535534 )
                  (  0.0000000 -1.0000000  0.0000000 )       ( -0.3535534 )
                  (  0.0000000  0.0000000  1.0000000 )       ( -0.3535534 )


      isym = 28     inv. 180 deg rotation - cart. axis [1,0,0]   

 cryst.   s(28) = (     1          0          0      )    f =( -0.2500000 )
                  (     1          0         -1      )       ( -0.2500000 )
                  (     1         -1          0      )       ( -0.2500000 )

 cart.    s(28) = ( -1.0000000  0.0000000  0.0000000 )    f =( -0.3535534 )
                  (  0.0000000  1.0000000  0.0000000 )       ( -0.3535534 )
                  (  0.0000000  0.0000000  1.0000000 )       ( -0.3535534 )


      isym = 29     inv. 180 deg rotation - cart. axis [1,1,0]   

 cryst.   s(29) = (     1          0         -1      )
                  (     0          1         -1      )
                  (     0          0         -1      )

 cart.    s(29) = (  0.0000000 -1.0000000  0.0000000 )
                  ( -1.0000000  0.0000000  0.0000000 )
                  (  0.0000000  0.0000000  1.0000000 )


      isym = 30     inv. 180 deg rotation - cart. axis [1,-1,0]  

 cryst.   s(30) = (     0          1          0      )
                  (     1          0          0      )
                  (     0          0          1      )

 cart.    s(30) = (  0.0000000  1.0000000  0.0000000 )
                  (  1.0000000  0.0000000  0.0000000 )
                  (  0.0000000  0.0000000  1.0000000 )


      isym = 31     inv.  90 deg rotation - cart. axis [0,0,-1]  

 cryst.   s(31) = (     0         -1          0      )
                  (     0         -1          1      )
                  (     1         -1          0      )

 cart.    s(31) = (  0.0000000 -1.0000000  0.0000000 )
                  (  1.0000000  0.0000000  0.0000000 )
                  (  0.0000000  0.0000000 -1.0000000 )


      isym = 32     inv.  90 deg rotation - cart. axis [0,0,1]   

 cryst.   s(32) = (    -1          0          1      )
                  (    -1          0          0      )
                  (    -1          1          0      )

 cart.    s(32) = (  0.0000000  1.0000000  0.0000000 )
                  ( -1.0000000  0.0000000  0.0000000 )
                  (  0.0000000  0.0000000 -1.0000000 )


      isym = 33     inv. 180 deg rotation - cart. axis [1,0,1]   

 cryst.   s(33) = (     1         -1          0      )
                  (     0         -1          0      )
                  (     0         -1          1      )

 cart.    s(33) = (  0.0000000  0.0000000 -1.0000000 )
                  (  0.0000000  1.0000000  0.0000000 )
                  ( -1.0000000  0.0000000  0.0000000 )


      isym = 34     inv. 180 deg rotation - cart. axis [-1,0,1]  

 cryst.   s(34) = (     0          0          1      )
                  (     0          1          0      )
                  (     1          0          0      )

 cart.    s(34) = (  0.0000000  0.0000000  1.0000000 )
                  (  0.0000000  1.0000000  0.0000000 )
                  (  1.0000000  0.0000000  0.0000000 )


      isym = 35     inv.  90 deg rotation - cart. axis [0,1,0]   

 cryst.   s(35) = (     0          0         -1      )
                  (     1          0         -1      )
                  (     0          1         -1      )

 cart.    s(35) = (  0.0000000  0.0000000 -1.0000000 )
                  (  0.0000000 -1.0000000  0.0000000 )
                  (  1.0000000  0.0000000  0.0000000 )


      isym = 36     inv.  90 deg rotation - cart. axis [0,-1,0]  

 cryst.   s(36) = (    -1          1          0      )
                  (    -1          0          1      )
                  (    -1          0          0      )

 cart.    s(36) = (  0.0000000  0.0000000  1.0000000 )
                  (  0.0000000 -1.0000000  0.0000000 )
                  ( -1.0000000  0.0000000  0.0000000 )


      isym = 37     inv. 180 deg rotation - cart. axis [0,1,1]   

 cryst.   s(37) = (    -1          0          0      )
                  (    -1          1          0      )
                  (    -1          0          1      )

 cart.    s(37) = (  1.0000000  0.0000000  0.0000000 )
                  (  0.0000000  0.0000000 -1.0000000 )
                  (  0.0000000 -1.0000000  0.0000000 )


      isym = 38     inv. 180 deg rotation - cart. axis [0,1,-1]  

 cryst.   s(38) = (     1          0          0      )
                  (     0          0          1      )
                  (     0          1          0      )

 cart.    s(38) = (  1.0000000  0.0000000  0.0000000 )
                  (  0.0000000  0.0000000  1.0000000 )
                  (  0.0000000  1.0000000  0.0000000 )


      isym = 39     inv.  90 deg rotation - cart. axis [-1,0,0]  

 cryst.   s(39) = (     0          1         -1      )
                  (     0          0         -1      )
                  (     1          0         -1      )

 cart.    s(39) = ( -1.0000000  0.0000000  0.0000000 )
                  (  0.0000000  0.0000000 -1.0000000 )
                  (  0.0000000  1.0000000  0.0000000 )


      isym = 40     inv.  90 deg rotation - cart. axis [1,0,0]   

 cryst.   s(40) = (     0         -1          1      )
                  (     1         -1          0      )
                  (     0         -1          0      )

 cart.    s(40) = ( -1.0000000  0.0000000  0.0000000 )
                  (  0.0000000  0.0000000  1.0000000 )
                  (  0.0000000 -1.0000000  0.0000000 )


      isym = 41     inv. 120 deg rotation - cart. axis [-1,-1,-1]

 cryst.   s(41) = (     0          0         -1      )    f =( -0.2500000 )
                  (    -1          0          0      )       ( -0.2500000 )
                  (     0         -1          0      )       ( -0.2500000 )

 cart.    s(41) = (  0.0000000 -1.0000000  0.0000000 )    f =( -0.3535534 )
                  (  0.0000000  0.0000000 -1.0000000 )       ( -0.3535534 )
                  ( -1.0000000  0.0000000  0.0000000 )       ( -0.3535534 )


      isym = 42     inv. 120 deg rotation - cart. axis [-1,1,1]  

 cryst.   s(42) = (    -1          1          0      )    f =( -0.2500000 )
                  (     0          1         -1      )       ( -0.2500000 )
                  (     0          1          0      )       ( -0.2500000 )

 cart.    s(42) = (  0.0000000  1.0000000  0.0000000 )    f =( -0.3535534 )
                  (  0.0000000  0.0000000 -1.0000000 )       ( -0.3535534 )
                  (  1.0000000  0.0000000  0.0000000 )       ( -0.3535534 )


      isym = 43     inv. 120 deg rotation - cart. axis [1,1,-1]  

 cryst.   s(43) = (     1         -1          0      )    f =( -0.2500000 )
                  (     1          0          0      )       ( -0.2500000 )
                  (     1          0         -1      )       ( -0.2500000 )

 cart.    s(43) = (  0.0000000 -1.0000000  0.0000000 )    f =( -0.3535534 )
                  (  0.0000000  0.0000000  1.0000000 )       ( -0.3535534 )
                  (  1.0000000  0.0000000  0.0000000 )       ( -0.3535534 )


      isym = 44     inv. 120 deg rotation - cart. axis [1,-1,1]  

 cryst.   s(44) = (     0          0          1      )    f =( -0.2500000 )
                  (     0         -1          1      )       ( -0.2500000 )
                  (    -1          0          1      )       ( -0.2500000 )

 cart.    s(44) = (  0.0000000  1.0000000  0.0000000 )    f =( -0.3535534 )
                  (  0.0000000  0.0000000  1.0000000 )       ( -0.3535534 )
                  ( -1.0000000  0.0000000  0.0000000 )       ( -0.3535534 )


      isym = 45     inv. 120 deg rotation - cart. axis [1,1,1]   

 cryst.   s(45) = (     0         -1          0      )    f =( -0.2500000 )
                  (     0          0         -1      )       ( -0.2500000 )
                  (    -1          0          0      )       ( -0.2500000 )

 cart.    s(45) = (  0.0000000  0.0000000 -1.0000000 )    f =( -0.3535534 )
                  ( -1.0000000  0.0000000  0.0000000 )       ( -0.3535534 )
                  (  0.0000000 -1.0000000  0.0000000 )       ( -0.3535534 )


      isym = 46     inv. 120 deg rotation - cart. axis [-1,1,-1] 

 cryst.   s(46) = (     1          0         -1      )    f =( -0.2500000 )
                  (     1         -1          0      )       ( -0.2500000 )
                  (     1          0          0      )       ( -0.2500000 )

 cart.    s(46) = (  0.0000000  0.0000000 -1.0000000 )    f =( -0.3535534 )
                  (  1.0000000  0.0000000  0.0000000 )       ( -0.3535534 )
                  (  0.0000000  1.0000000  0.0000000 )       ( -0.3535534 )


      isym = 47     inv. 120 deg rotation - cart. axis [1,-1,-1] 

 cryst.   s(47) = (    -1          0          1      )    f =( -0.2500000 )
                  (     0          0          1      )       ( -0.2500000 )
                  (     0         -1          1      )       ( -0.2500000 )

 cart.    s(47) = (  0.0000000  0.0000000  1.0000000 )    f =( -0.3535534 )
                  (  1.0000000  0.0000000  0.0000000 )       ( -0.3535534 )
                  (  0.0000000 -1.0000000  0.0000000 )       ( -0.3535534 )


      isym = 48     inv. 120 deg rotation - cart. axis [-1,-1,1] 

 cryst.   s(48) = (     0          1          0      )    f =( -0.2500000 )
                  (    -1          1          0      )       ( -0.2500000 )
                  (     0          1         -1      )       ( -0.2500000 )

 cart.    s(48) = (  0.0000000  0.0000000  1.0000000 )    f =( -0.3535534 )
                  ( -1.0000000  0.0000000  0.0000000 )       ( -0.3535534 )
                  (  0.0000000  1.0000000  0.0000000 )       ( -0.3535534 )


   Cartesian axes

     site n.     atom                  positions (alat units)
         1           Sn  tau(   1) = (   0.0000000   0.0000000   0.0000000  )
         2           Sn  tau(   2) = (   0.3535534   0.3535534   0.3535534  )

   Crystallographic axes

     site n.     atom                  positions (cryst. coord.)
         1           Sn  tau(   1) = (  0.0000000  0.0000000  0.0000000  )
         2           Sn  tau(   2) = (  0.2500000  0.2500000  0.2500000  )

     number of k points=    47  Marzari-Vanderbilt smearing, width (Ry)=  0.0100
                       cart. coord. in units 2pi/alat
        k(    1) = (   0.0000000   0.0000000   0.0000000), wk =   0.0020000
        k(    2) = (   0.0707107   0.0707107  -0.0707107), wk =   0.0160000
        k(    3) = (   0.1414214   0.1414214  -0.1414214), wk =   0.0160000
        k(    4) = (   0.2121320   0.2121320  -0.2121320), wk =   0.0160000
        k(    5) = (   0.2828427   0.2828427  -0.2828427), wk =   0.0160000
        k(    6) = (  -0.3535534  -0.3535534   0.3535534), wk =   0.0080000
        k(    7) = (   0.1414214   0.0000000   0.0000000), wk =   0.0120000
        k(    8) = (   0.2121320   0.0707107  -0.0707107), wk =   0.0480000
        k(    9) = (   0.2828427   0.1414214  -0.1414214), wk =   0.0480000
        k(   10) = (   0.3535534   0.2121320  -0.2121320), wk =   0.0480000
        k(   11) = (  -0.2828427  -0.4242641   0.4242641), wk =   0.0480000
        k(   12) = (  -0.2121320  -0.3535534   0.3535534), wk =   0.0480000
        k(   13) = (  -0.1414214  -0.2828427   0.2828427), wk =   0.0480000
        k(   14) = (  -0.0707107  -0.2121320   0.2121320), wk =   0.0480000
        k(   15) = (   0.0000000  -0.1414214   0.1414214), wk =   0.0240000
        k(   16) = (   0.2828427   0.0000000   0.0000000), wk =   0.0120000
        k(   17) = (   0.3535534   0.0707107  -0.0707107), wk =   0.0480000
        k(   18) = (   0.4242641   0.1414214  -0.1414214), wk =   0.0480000
        k(   19) = (  -0.2121320  -0.4949747   0.4949747), wk =   0.0480000
        k(   20) = (  -0.1414214  -0.4242641   0.4242641), wk =   0.0480000
        k(   21) = (  -0.0707107  -0.3535534   0.3535534), wk =   0.0480000
        k(   22) = (   0.0000000  -0.2828427   0.2828427), wk =   0.0240000
        k(   23) = (   0.4242641   0.0000000   0.0000000), wk =   0.0120000
        k(   24) = (   0.4949747   0.0707107  -0.0707107), wk =   0.0480000
        k(   25) = (  -0.1414214  -0.5656854   0.5656854), wk =   0.0480000
        k(   26) = (  -0.0707107  -0.4949747   0.4949747), wk =   0.0480000
        k(   27) = (  -0.0000000  -0.4242641   0.4242641), wk =   0.0240000
        k(   28) = (   0.5656854   0.0000000   0.0000000), wk =   0.0120000
        k(   29) = (  -0.0707107  -0.6363961   0.6363961), wk =   0.0480000
        k(   30) = (   0.0000000  -0.5656854   0.5656854), wk =   0.0240000
        k(   31) = (  -0.7071068   0.0000000   0.0000000), wk =   0.0060000
        k(   32) = (   0.2828427   0.1414214   0.0000000), wk =   0.0480000
        k(   33) = (   0.3535534   0.2121320  -0.0707107), wk =   0.0960000
        k(   34) = (  -0.2828427  -0.4242641   0.5656854), wk =   0.0960000
        k(   35) = (  -0.2121320  -0.3535534   0.4949747), wk =   0.0480000
        k(   36) = (   0.4242641   0.1414214  -0.0000000), wk =   0.0480000
        k(   37) = (  -0.2121320  -0.4949747   0.6363961), wk =   0.0960000
        k(   38) = (  -0.1414214  -0.4242641   0.5656854), wk =   0.0960000
        k(   39) = (  -0.0707107  -0.3535534   0.4949747), wk =   0.0960000
        k(   40) = (   0.0000000  -0.2828427   0.4242641), wk =   0.0480000
        k(   41) = (  -0.1414214  -0.5656854   0.7071068), wk =   0.0480000
        k(   42) = (  -0.0707107  -0.4949747   0.6363961), wk =   0.0960000
        k(   43) = (  -0.0000000  -0.4242641   0.5656854), wk =   0.0480000
        k(   44) = (  -0.7071068   0.1414214   0.0000000), wk =   0.0240000
        k(   45) = (  -0.1414214  -0.4242641   0.7071068), wk =   0.0480000
        k(   46) = (  -0.0707107  -0.3535534   0.6363961), wk =   0.0480000
        k(   47) = (  -0.7071068   0.2828427   0.0000000), wk =   0.0240000

                       cryst. coord.
        k(    1) = (   0.0000000   0.0000000   0.0000000), wk =   0.0020000
        k(    2) = (   0.0000000   0.0000000   0.1000000), wk =   0.0160000
        k(    3) = (   0.0000000   0.0000000   0.2000000), wk =   0.0160000
        k(    4) = (   0.0000000   0.0000000   0.3000000), wk =   0.0160000
        k(    5) = (   0.0000000   0.0000000   0.4000000), wk =   0.0160000
        k(    6) = (   0.0000000   0.0000000  -0.5000000), wk =   0.0080000
        k(    7) = (   0.0000000   0.1000000   0.1000000), wk =   0.0120000
        k(    8) = (   0.0000000   0.1000000   0.2000000), wk =   0.0480000
        k(    9) = (   0.0000000   0.1000000   0.3000000), wk =   0.0480000
        k(   10) = (   0.0000000   0.1000000   0.4000000), wk =   0.0480000
        k(   11) = (   0.0000000   0.1000000  -0.5000000), wk =   0.0480000
        k(   12) = (   0.0000000   0.1000000  -0.4000000), wk =   0.0480000
        k(   13) = (   0.0000000   0.1000000  -0.3000000), wk =   0.0480000
        k(   14) = (   0.0000000   0.1000000  -0.2000000), wk =   0.0480000
        k(   15) = (   0.0000000   0.1000000  -0.1000000), wk =   0.0240000
        k(   16) = (   0.0000000   0.2000000   0.2000000), wk =   0.0120000
        k(   17) = (   0.0000000   0.2000000   0.3000000), wk =   0.0480000
        k(   18) = (   0.0000000   0.2000000   0.4000000), wk =   0.0480000
        k(   19) = (   0.0000000   0.2000000  -0.5000000), wk =   0.0480000
        k(   20) = (   0.0000000   0.2000000  -0.4000000), wk =   0.0480000
        k(   21) = (   0.0000000   0.2000000  -0.3000000), wk =   0.0480000
        k(   22) = (   0.0000000   0.2000000  -0.2000000), wk =   0.0240000
        k(   23) = (   0.0000000   0.3000000   0.3000000), wk =   0.0120000
        k(   24) = (   0.0000000   0.3000000   0.4000000), wk =   0.0480000
        k(   25) = (   0.0000000   0.3000000  -0.5000000), wk =   0.0480000
        k(   26) = (   0.0000000   0.3000000  -0.4000000), wk =   0.0480000
        k(   27) = (   0.0000000   0.3000000  -0.3000000), wk =   0.0240000
        k(   28) = (   0.0000000   0.4000000   0.4000000), wk =   0.0120000
        k(   29) = (   0.0000000   0.4000000  -0.5000000), wk =   0.0480000
        k(   30) = (   0.0000000   0.4000000  -0.4000000), wk =   0.0240000
        k(   31) = (   0.0000000  -0.5000000  -0.5000000), wk =   0.0060000
        k(   32) = (   0.1000000   0.2000000   0.3000000), wk =   0.0480000
        k(   33) = (   0.1000000   0.2000000   0.4000000), wk =   0.0960000
        k(   34) = (   0.1000000   0.2000000  -0.5000000), wk =   0.0960000
        k(   35) = (   0.1000000   0.2000000  -0.4000000), wk =   0.0480000
        k(   36) = (   0.1000000   0.3000000   0.4000000), wk =   0.0480000
        k(   37) = (   0.1000000   0.3000000  -0.5000000), wk =   0.0960000
        k(   38) = (   0.1000000   0.3000000  -0.4000000), wk =   0.0960000
        k(   39) = (   0.1000000   0.3000000  -0.3000000), wk =   0.0960000
        k(   40) = (   0.1000000   0.3000000  -0.2000000), wk =   0.0480000
        k(   41) = (   0.1000000   0.4000000  -0.5000000), wk =   0.0480000
        k(   42) = (   0.1000000   0.4000000  -0.4000000), wk =   0.0960000
        k(   43) = (   0.1000000   0.4000000  -0.3000000), wk =   0.0480000
        k(   44) = (   0.1000000  -0.5000000  -0.4000000), wk =   0.0240000
        k(   45) = (   0.2000000   0.4000000  -0.4000000), wk =   0.0480000
        k(   46) = (   0.2000000   0.4000000  -0.3000000), wk =   0.0480000
        k(   47) = (   0.2000000  -0.5000000  -0.3000000), wk =   0.0240000

     Dense  grid:    69665 G-vectors     FFT dimensions: (  60,  60,  60)

     Smooth grid:    24693 G-vectors     FFT dimensions: (  48,  48,  48)

     Dynamical RAM for                 wfc:       0.11 MB

     Dynamical RAM for     wfc (w. buffer):       1.37 MB

     Dynamical RAM for           str. fact:       0.13 MB

     Dynamical RAM for           local pot:       0.00 MB

     Dynamical RAM for          nlocal pot:       0.21 MB

     Dynamical RAM for                qrad:       2.30 MB

     Dynamical RAM for          rho,v,vnew:       1.06 MB

     Dynamical RAM for               rhoin:       0.35 MB

     Dynamical RAM for            rho*nmix:       2.13 MB

     Dynamical RAM for           G-vectors:       0.52 MB

     Dynamical RAM for          h,s,v(r/c):       0.06 MB

     Dynamical RAM for          <psi|beta>:       0.01 MB

     Dynamical RAM for                 psi:       0.42 MB

     Dynamical RAM for                hpsi:       0.42 MB

     Dynamical RAM for                spsi:       0.42 MB

     Dynamical RAM for      wfcinit/wfcrot:       0.22 MB

     Dynamical RAM for           addusdens:       6.34 MB

     Dynamical RAM for          addusforce:       6.38 MB

     Dynamical RAM for         addusstress:       6.72 MB

     Estimated static dynamical RAM per process >       9.43 MB

     Estimated max dynamical RAM per process >      16.16 MB

     Estimated total dynamical RAM >     517.06 MB

     Initial potential from superposition of free atoms

     starting charge   25.99992, renormalised to   28.00000
     Starting wfcs are   18 randomized atomic wfcs

     total cpu time spent up to now is        0.4 secs

     Self-consistent Calculation

     iteration #  1     ecut=    54.00 Ry     beta= 0.70
     Davidson diagonalization with overlap
     ethr =  1.00E-02,  avg # of iterations =  3.6

     total cpu time spent up to now is        0.9 secs

     total energy              =    -316.79356422 Ry
     Harris-Foulkes estimate   =    -318.90007256 Ry
     estimated scf accuracy    <       2.56230903 Ry

     iteration #  2     ecut=    54.00 Ry     beta= 0.70
     Davidson diagonalization with overlap
     ethr =  9.15E-03,  avg # of iterations =  3.0

     total cpu time spent up to now is        1.3 secs

     total energy              =    -317.73037533 Ry
     Harris-Foulkes estimate   =    -318.07500023 Ry
     estimated scf accuracy    <       0.51487469 Ry

     iteration #  3     ecut=    54.00 Ry     beta= 0.70
     Davidson diagonalization with overlap
     ethr =  1.84E-03,  avg # of iterations =  2.0

     total cpu time spent up to now is        1.7 secs

     total energy              =    -317.83228105 Ry
     Harris-Foulkes estimate   =    -317.83395160 Ry
     estimated scf accuracy    <       0.00296060 Ry

     iteration #  4     ecut=    54.00 Ry     beta= 0.70
     Davidson diagonalization with overlap
     ethr =  1.06E-05,  avg # of iterations =  3.2

     total cpu time spent up to now is        2.2 secs

     total energy              =    -317.83297688 Ry
     Harris-Foulkes estimate   =    -317.83308263 Ry
     estimated scf accuracy    <       0.00015638 Ry

     iteration #  5     ecut=    54.00 Ry     beta= 0.70
     Davidson diagonalization with overlap
     ethr =  5.58E-07,  avg # of iterations =  2.0

     total cpu time spent up to now is        2.5 secs

     total energy              =    -317.83301666 Ry
     Harris-Foulkes estimate   =    -317.83301689 Ry
     estimated scf accuracy    <       0.00000062 Ry

     iteration #  6     ecut=    54.00 Ry     beta= 0.70
     Davidson diagonalization with overlap
     ethr =  2.22E-09,  avg # of iterations =  3.7

     total cpu time spent up to now is        3.0 secs

     total energy              =    -317.83301700 Ry
     Harris-Foulkes estimate   =    -317.83301700 Ry
     estimated scf accuracy    <          5.8E-09 Ry

     iteration #  7     ecut=    54.00 Ry     beta= 0.70
     Davidson diagonalization with overlap
     ethr =  2.06E-11,  avg # of iterations =  2.3

     total cpu time spent up to now is        3.4 secs

     total energy              =    -317.83301700 Ry
     Harris-Foulkes estimate   =    -317.83301700 Ry
     estimated scf accuracy    <          4.8E-10 Ry

     iteration #  8     ecut=    54.00 Ry     beta= 0.70
     Davidson diagonalization with overlap
     ethr =  1.73E-12,  avg # of iterations =  2.6

     total cpu time spent up to now is        3.8 secs

     End of self-consistent calculation

          k = 0.0000 0.0000 0.0000 (  3119 PWs)   bands (ev):

   -13.8959 -13.8959 -13.8959 -13.8355 -13.8355 -13.5209 -13.5209 -13.5209
   -13.5114 -13.5114  -2.9099   7.0840   7.8375   7.8375   7.8375   9.9054
     9.9054   9.9054

     occupation numbers 
     1.0000   1.0000   1.0000   1.0000   1.0000   1.0000   1.0000   1.0000
     1.0000   1.0000   1.0000   1.0000   0.0601   0.0601   0.0601   0.0000
     0.0000   0.0000

          k = 0.0707 0.0707-0.0707 (  3077 PWs)   bands (ev):

   -13.9034 -13.9034 -13.8933 -13.8242 -13.8242 -13.5377 -13.5377 -13.5236
   -13.4957 -13.4957  -2.8125   5.9411   7.6402   7.6402   8.3072  10.1583
    10.1583  10.3329

     occupation numbers 
     1.0000   1.0000   1.0000   1.0000   1.0000   1.0000   1.0000   1.0000
     1.0000   1.0000   1.0000   1.0000   0.8732   0.8732   0.0000   0.0000
     0.0000   0.0000

          k = 0.1414 0.1414-0.1414 (  3089 PWs)   bands (ev):

   -13.9164 -13.9164 -13.8865 -13.8043 -13.8043 -13.5572 -13.5572 -13.5322
   -13.4807 -13.4807  -2.5264   4.4182   7.2613   7.2613   8.2038  10.6255
    10.6255  11.5257

     occupation numbers 
     1.0000   1.0000   1.0000   1.0000   1.0000   1.0000   1.0000   1.0000
     1.0000   1.0000   1.0000   1.0000   1.0002   1.0002   0.0000   0.0000
     0.0000   0.0000

          k = 0.2121 0.2121-0.2121 (  3064 PWs)   bands (ev):

   -13.9258 -13.9258 -13.8780 -13.7865 -13.7865 -13.5713 -13.5713 -13.5426
   -13.4704 -13.4704  -2.0780   3.0116   6.9216   6.9216   7.9449  10.9180
    10.9180  12.9541

     occupation numbers 
     1.0000   1.0000   1.0000   1.0000   1.0000   1.0000   1.0000   1.0000
     1.0000   1.0000   1.0000   1.0000   1.0000   1.0000   0.0028   0.0000
     0.0000   0.0000

          k = 0.2828 0.2828-0.2828 (  3064 PWs)   bands (ev):

   -13.9308 -13.9308 -13.8708 -13.7764 -13.7764 -13.5789 -13.5789 -13.5516
   -13.4650 -13.4650  -1.5589   1.8965   6.7007   6.7007   7.7608  10.9751
    10.9751  13.3914

     occupation numbers 
     1.0000   1.0000   1.0000   1.0000   1.0000   1.0000   1.0000   1.0000
     1.0000   1.0000   1.0000   1.0000   1.0000   1.0000   0.2622   0.0000
     0.0000   0.0000

          k =-0.3536-0.3536 0.3536 (  3100 PWs)   bands (ev):

   -13.9327 -13.9327 -13.8686 -13.7733 -13.7733 -13.5814 -13.5814 -13.5557
   -13.4634 -13.4634  -1.2742   1.4101   6.6249   6.6249   7.6968  10.9669
    10.9669  13.2982

     occupation numbers 
     1.0000   1.0000   1.0000   1.0000   1.0000   1.0000   1.0000   1.0000
     1.0000   1.0000   1.0000   1.0000   1.0000   1.0000   0.5804   0.0000
     0.0000   0.0000

          k = 0.1414 0.0000 0.0000 (  3087 PWs)   bands (ev):

   -13.9021 -13.9015 -13.9015 -13.8272 -13.8132 -13.5611 -13.5191 -13.5121
   -13.5121 -13.4892  -2.7796   5.8455   7.3137   7.3137   9.0004   9.5237
    10.5899  10.5899

     occupation numbers 
     1.0000   1.0000   1.0000   1.0000   1.0000   1.0000   1.0000   1.0000
     1.0000   1.0000   1.0000   1.0000   1.0011   1.0011   0.0000   0.0000
     0.0000   0.0000

          k = 0.2121 0.0707-0.0707 (  3068 PWs)   bands (ev):

   -13.9175 -13.9106 -13.8930 -13.8123 -13.7913 -13.5853 -13.5383 -13.5146
   -13.4945 -13.4768  -2.5549   4.7154   6.9096   6.9118   9.1768   9.6791
    11.1567  11.4040

     occupation numbers 
     1.0000   1.0000   1.0000   1.0000   1.0000   1.0000   1.0000   1.0000
     1.0000   1.0000   1.0000   1.0000   1.0000   1.0000   0.0000   0.0000
     0.0000   0.0000

          k = 0.2828 0.1414-0.1414 (  3070 PWs)   bands (ev):

   -13.9319 -13.9215 -13.8791 -13.7938 -13.7713 -13.6027 -13.5574 -13.5300
   -13.4794 -13.4628  -2.1556   3.3775   6.4551   6.5990   8.9190  10.2649
    11.4981  12.1420

     occupation numbers 
     1.0000   1.0000   1.0000   1.0000   1.0000   1.0000   1.0000   1.0000
     1.0000   1.0000   1.0000   1.0000   1.0000   1.0000   0.0000   0.0000
     0.0000   0.0000

          k = 0.3536 0.2121-0.2121 (  3061 PWs)   bands (ev):

   -13.9412 -13.9293 -13.8641 -13.7778 -13.7614 -13.6074 -13.5734 -13.5486
   -13.4682 -13.4533  -1.6405   2.1927   6.0763   6.4348   8.6747  10.6222
    11.4959  12.9341

     occupation numbers 
     1.0000   1.0000   1.0000   1.0000   1.0000   1.0000   1.0000   1.0000
     1.0000   1.0000   1.0000   1.0000   1.0000   1.0000   0.0000   0.0000
     0.0000   0.0000

          k =-0.2828-0.4243 0.4243 (  3080 PWs)   bands (ev):

   -13.9449 -13.9345 -13.8539 -13.7663 -13.7633 -13.5986 -13.5869 -13.5642
   -13.4609 -13.4503  -1.2215   1.4585   5.8361   6.4365   8.5356  10.7654
    11.3408  13.6117

     occupation numbers 
     1.0000   1.0000   1.0000   1.0000   1.0000   1.0000   1.0000   1.0000
     1.0000   1.0000   1.0000   1.0000   1.0000   1.0000   0.0000   0.0000
     0.0000   0.0000

          k =-0.2121-0.3536 0.3536 (  3075 PWs)   bands (ev):

   -13.9424 -13.9366 -13.8531 -13.7726 -13.7610 -13.5955 -13.5814 -13.5700
   -13.4572 -13.4542  -1.3261   1.6282   5.7611   6.6003   8.5228  10.9127
    11.1741  13.6864

     occupation numbers 
     1.0000   1.0000   1.0000   1.0000   1.0000   1.0000   1.0000   1.0000
     1.0000   1.0000   1.0000   1.0000   1.0000   1.0000   0.0000   0.0000
     0.0000   0.0000

          k =-0.1414-0.2828 0.2828 (  3063 PWs)   bands (ev):

   -13.9345 -13.9344 -13.8629 -13.7849 -13.7656 -13.5949 -13.5740 -13.5518
   -13.4650 -13.4583  -1.8199   2.5604   5.8711   6.9029   8.6282  10.9680
    11.0540  12.9256

     occupation numbers 
     1.0000   1.0000   1.0000   1.0000   1.0000   1.0000   1.0000   1.0000
     1.0000   1.0000   1.0000   1.0000   1.0000   1.0000   0.0000   0.0000
     0.0000   0.0000

          k =-0.0707-0.2121 0.2121 (  3067 PWs)   bands (ev):

   -13.9276 -13.9218 -13.8777 -13.7999 -13.7821 -13.5824 -13.5647 -13.5277
   -13.4823 -13.4651  -2.3078   3.8092   6.1941   7.2892   8.7946  10.6066
    10.8437  12.0062

     occupation numbers 
     1.0000   1.0000   1.0000   1.0000   1.0000   1.0000   1.0000   1.0000
     1.0000   1.0000   1.0000   1.0000   1.0000   1.0005   0.0000   0.0000
     0.0000   0.0000

          k = 0.0000-0.1414 0.1414 (  3066 PWs)   bands (ev):

   -13.9157 -13.9076 -13.8903 -13.8161 -13.8048 -13.5615 -13.5491 -13.5088
   -13.5040 -13.4777  -2.6516   5.0750   6.8019   7.6214   8.7634  10.2004
    10.2930  11.2616

     occupation numbers 
     1.0000   1.0000   1.0000   1.0000   1.0000   1.0000   1.0000   1.0000
     1.0000   1.0000   1.0000   1.0000   1.0000   0.9483   0.0000   0.0000
     0.0000   0.0000

          k = 0.2828 0.0000 0.0000 (  3066 PWs)   bands (ev):

   -13.9154 -13.9154 -13.9034 -13.8032 -13.7658 -13.6192 -13.5414 -13.4918
   -13.4918 -13.4845  -2.3915   4.3240   6.4971   6.4971   8.9184   9.9199
    11.8764  11.8764

     occupation numbers 
     1.0000   1.0000   1.0000   1.0000   1.0000   1.0000   1.0000   1.0000
     1.0000   1.0000   1.0000   1.0000   1.0000   1.0000   0.0000   0.0000
     0.0000   0.0000

          k = 0.3536 0.0707-0.0707 (  3077 PWs)   bands (ev):

   -13.9320 -13.9245 -13.8874 -13.7853 -13.7407 -13.6463 -13.5603 -13.5093
   -13.4778 -13.4652  -2.0461   3.3839   5.9994   6.1764   9.0144   9.9616
    12.0856  12.4118

     occupation numbers 
     1.0000   1.0000   1.0000   1.0000   1.0000   1.0000   1.0000   1.0000
     1.0000   1.0000   1.0000   1.0000   1.0000   1.0000   0.0000   0.0000
     0.0000   0.0000

          k = 0.4243 0.1414-0.1414 (  3060 PWs)   bands (ev):

   -13.9487 -13.9328 -13.8620 -13.7655 -13.7261 -13.6587 -13.5812 -13.5382
   -13.4646 -13.4457  -1.5558   2.3377   5.4332   6.0138   9.1115  10.5111
    11.9501  12.5021

     occupation numbers 
     1.0000   1.0000   1.0000   1.0000   1.0000   1.0000   1.0000   1.0000
     1.0000   1.0000   1.0000   1.0000   1.0000   1.0000   0.0000   0.0000
     0.0000   0.0000

          k =-0.2121-0.4950 0.4950 (  3081 PWs)   bands (ev):

   -13.9593 -13.9394 -13.8385 -13.7480 -13.7294 -13.6514 -13.6022 -13.5651
   -13.4549 -13.4342  -1.0567   1.5067   5.0065   6.0306   9.0603  11.0892
    12.2936  12.4738

     occupation numbers 
     1.0000   1.0000   1.0000   1.0000   1.0000   1.0000   1.0000   1.0000
     1.0000   1.0000   1.0000   1.0000   1.0000   1.0000   0.0000   0.0000
     0.0000   0.0000

          k =-0.1414-0.4243 0.4243 (  3075 PWs)   bands (ev):

   -13.9611 -13.9428 -13.8268 -13.7478 -13.7360 -13.6267 -13.6181 -13.5802
   -13.4493 -13.4328  -0.9651   1.3747   4.7933   6.2229   9.0926  11.2359
    11.9949  13.5915

     occupation numbers 
     1.0000   1.0000   1.0000   1.0000   1.0000   1.0000   1.0000   1.0000
     1.0000   1.0000   1.0000   1.0000   1.0000   1.0000   0.0000   0.0000
     0.0000   0.0000

          k =-0.0707-0.3536 0.3536 (  3079 PWs)   bands (ev):

   -13.9540 -13.9427 -13.8329 -13.7709 -13.7379 -13.6210 -13.5926 -13.5808
   -13.4490 -13.4426  -1.4020   2.0539   4.8492   6.5619   9.2050  11.3968
    11.6093  12.6848

     occupation numbers 
     1.0000   1.0000   1.0000   1.0000   1.0000   1.0000   1.0000   1.0000
     1.0000   1.0000   1.0000   1.0000   1.0000   1.0000   0.0000   0.0000
     0.0000   0.0000

          k = 0.0000-0.2828 0.2828 (  3088 PWs)   bands (ev):

   -13.9390 -13.9376 -13.8549 -13.7881 -13.7564 -13.6066 -13.5780 -13.5517
   -13.4623 -13.4542  -1.9153   2.9887   5.2778   6.9740   9.2372  11.0703
    11.2723  11.9225

     occupation numbers 
     1.0000   1.0000   1.0000   1.0000   1.0000   1.0000   1.0000   1.0000
     1.0000   1.0000   1.0000   1.0000   1.0000   1.0000   0.0000   0.0000
     0.0000   0.0000

          k = 0.4243 0.0000 0.0000 (  3086 PWs)   bands (ev):

   -13.9316 -13.9316 -13.8893 -13.7670 -13.7078 -13.6851 -13.5767 -13.5013
   -13.4682 -13.4682  -1.7535   2.8470   5.8309   5.8309   8.4934   9.6297
    13.2943  13.2943

     occupation numbers 
     1.0000   1.0000   1.0000   1.0000   1.0000   1.0000   1.0000   1.0000
     1.0000   1.0000   1.0000   1.0000   1.0000   1.0000   0.0000   0.0000
     0.0000   0.0000

          k = 0.4950 0.0707-0.0707 (  3074 PWs)   bands (ev):

   -13.9454 -13.9385 -13.8656 -13.7454 -13.7112 -13.6824 -13.5988 -13.5289
   -13.4572 -13.4491  -1.2998   2.0607   5.3465   5.6402   8.6753   9.5710
    13.2013  13.7020

     occupation numbers 
     1.0000   1.0000   1.0000   1.0000   1.0000   1.0000   1.0000   1.0000
     1.0000   1.0000   1.0000   1.0000   1.0000   1.0000   0.0000   0.0000
     0.0000   0.0000

          k =-0.1414-0.5657 0.5657 (  3076 PWs)   bands (ev):

   -13.9616 -13.9439 -13.8331 -13.7234 -13.7175 -13.6743 -13.6228 -13.5642
   -13.4486 -13.4306  -0.7658   1.3086   4.7383   5.6327   8.8178  10.4508
    12.8915  13.5569

     occupation numbers 
     1.0000   1.0000   1.0000   1.0000   1.0000   1.0000   1.0000   1.0000
     1.0000   1.0000   1.0000   1.0000   1.0000   1.0000   0.0000   0.0000
     0.0000   0.0000

          k =-0.0707-0.4950 0.4950 (  3084 PWs)   bands (ev):

   -13.9703 -13.9471 -13.8136 -13.7070 -13.7025 -13.6863 -13.6432 -13.5843
   -13.4441 -13.4215  -0.5057   0.9957   4.3430   5.8089   8.9315  11.8336
    12.7271  13.1358

     occupation numbers 
     1.0000   1.0000   1.0000   1.0000   1.0000   1.0000   1.0000   1.0000
     1.0000   1.0000   1.0000   1.0000   1.0000   1.0000   0.0000   0.0000
     0.0000   0.0000

          k =-0.0000-0.4243 0.4243 (  3084 PWs)   bands (ev):

   -13.9677 -13.9470 -13.8141 -13.7384 -13.7123 -13.6435 -13.6423 -13.5867
   -13.4440 -13.4257  -0.8833   1.4457   4.3335   6.1425   9.1326  12.3990
    12.4634  12.6425

     occupation numbers 
     1.0000   1.0000   1.0000   1.0000   1.0000   1.0000   1.0000   1.0000
     1.0000   1.0000   1.0000   1.0000   1.0000   1.0000   0.0000   0.0000
     0.0000   0.0000

          k = 0.5657 0.0000 0.0000 (  3062 PWs)   bands (ev):

   -13.9433 -13.9433 -13.8575 -13.7508 -13.7212 -13.6459 -13.6213 -13.5368
   -13.4495 -13.4495  -0.8812   1.4579   5.4102   5.4102   8.3468   8.9673
    14.6829  14.6829

     occupation numbers 
     1.0000   1.0000   1.0000   1.0000   1.0000   1.0000   1.0000   1.0000
     1.0000   1.0000   1.0000   1.0000   1.0000   1.0000   0.0000   0.0000
     0.0000   0.0000

          k =-0.0707-0.6364 0.6364 (  3072 PWs)   bands (ev):

   -13.9537 -13.9468 -13.8275 -13.7720 -13.6970 -13.6462 -13.6245 -13.5687
   -13.4443 -13.4375  -0.3419   0.8028   5.0124   5.3618   8.5604   9.1322
    14.5440  14.8449

     occupation numbers 
     1.0000   1.0000   1.0000   1.0000   1.0000   1.0000   1.0000   1.0000
     1.0000   1.0000   1.0000   1.0000   1.0000   1.0000   0.0000   0.0000
     0.0000   0.0000

          k = 0.0000-0.5657 0.5657 (  3076 PWs)   bands (ev):

   -13.9666 -13.9483 -13.8087 -13.7503 -13.6819 -13.6641 -13.6439 -13.5877
   -13.4424 -13.4244  -0.0473   0.5122   4.4964   5.5015   8.6957  10.3314
    13.9520  14.2330

     occupation numbers 
     1.0000   1.0000   1.0000   1.0000   1.0000   1.0000   1.0000   1.0000
     1.0000   1.0000   1.0000   1.0000   1.0000   1.0000   0.0000   0.0000
     0.0000   0.0000

          k =-0.7071 0.0000 0.0000 (  3058 PWs)   bands (ev):

   -13.9474 -13.9474 -13.8101 -13.8101 -13.6710 -13.6710 -13.5868 -13.5868
   -13.4428 -13.4428   0.2009   0.2009   5.2671   5.2671   8.5062   8.5062
    15.4978  15.4978

     occupation numbers 
     1.0000   1.0000   1.0000   1.0000   1.0000   1.0000   1.0000   1.0000
     1.0000   1.0000   1.0000   1.0000   1.0000   1.0000   0.0000   0.0000
     0.0000   0.0000

          k = 0.2828 0.1414 0.0000 (  3062 PWs)   bands (ev):

   -13.9279 -13.9225 -13.8825 -13.7984 -13.7673 -13.6113 -13.5527 -13.5192
   -13.4827 -13.4656  -2.2708   3.8611   6.0149   6.8420   9.5855   9.6612
    11.6439  11.7751

     occupation numbers 
     1.0000   1.0000   1.0000   1.0000   1.0000   1.0000   1.0000   1.0000
     1.0000   1.0000   1.0000   1.0000   1.0000   1.0000   0.0000   0.0000
     0.0000   0.0000

          k = 0.3536 0.2121-0.0707 (  3064 PWs)   bands (ev):

   -13.9414 -13.9343 -13.8611 -13.7813 -13.7470 -13.6289 -13.5696 -13.5453
   -13.4640 -13.4531  -1.8241   2.7887   5.4525   6.5331   9.4518  10.3127
    11.7407  12.1763

     occupation numbers 
     1.0000   1.0000   1.0000   1.0000   1.0000   1.0000   1.0000   1.0000
     1.0000   1.0000   1.0000   1.0000   1.0000   1.0000   0.0000   0.0000
     0.0000   0.0000

          k =-0.2828-0.4243 0.5657 (  3068 PWs)   bands (ev):

   -13.9529 -13.9398 -13.8409 -13.7649 -13.7393 -13.6316 -13.5872 -13.5701
   -13.4543 -13.4417  -1.3010   1.8084   5.1728   6.2569   9.3012  10.6317
    11.9350  12.8229

     occupation numbers 
     1.0000   1.0000   1.0000   1.0000   1.0000   1.0000   1.0000   1.0000
     1.0000   1.0000   1.0000   1.0000   1.0000   1.0000   0.0000   0.0000
     0.0000   0.0000

          k =-0.2121-0.3536 0.4950 (  3084 PWs)   bands (ev):

   -13.9571 -13.9416 -13.8331 -13.7540 -13.7426 -13.6242 -13.6035 -13.5776
   -13.4519 -13.4372  -1.0070   1.3509   5.0897   6.1517   9.2449  10.6484
    11.9990  13.6542

     occupation numbers 
     1.0000   1.0000   1.0000   1.0000   1.0000   1.0000   1.0000   1.0000
     1.0000   1.0000   1.0000   1.0000   1.0000   1.0000   0.0000   0.0000
     0.0000   0.0000

          k = 0.4243 0.1414-0.0000 (  3068 PWs)   bands (ev):

   -13.9396 -13.9390 -13.8682 -13.7663 -13.7149 -13.6734 -13.5794 -13.5295
   -13.4593 -13.4551  -1.6485   2.6125   5.4016   5.9537   9.2177   9.9200
    12.0223  13.1877

     occupation numbers 
     1.0000   1.0000   1.0000   1.0000   1.0000   1.0000   1.0000   1.0000
     1.0000   1.0000   1.0000   1.0000   1.0000   1.0000   0.0000   0.0000
     0.0000   0.0000

          k =-0.2121-0.4950 0.6364 (  3077 PWs)   bands (ev):

   -13.9563 -13.9453 -13.8377 -13.7464 -13.7019 -13.6841 -13.6022 -13.5623
   -13.4486 -13.4372  -1.1295   1.7749   4.8961   5.7110   9.4682  10.5356
    11.7391  13.4923

     occupation numbers 
     1.0000   1.0000   1.0000   1.0000   1.0000   1.0000   1.0000   1.0000
     1.0000   1.0000   1.0000   1.0000   1.0000   1.0000   0.0000   0.0000
     0.0000   0.0000

          k =-0.1414-0.4243 0.5657 (  3097 PWs)   bands (ev):

   -13.9664 -13.9487 -13.8150 -13.7305 -13.7059 -13.6755 -13.6249 -13.5851
   -13.4436 -13.4263  -0.6945   1.1812   4.5679   5.6671   9.5300  11.1737
    12.1767  13.2433

     occupation numbers 
     1.0000   1.0000   1.0000   1.0000   1.0000   1.0000   1.0000   1.0000
     1.0000   1.0000   1.0000   1.0000   1.0000   1.0000   0.0000   0.0000
     0.0000   0.0000

          k =-0.0707-0.3536 0.4950 (  3077 PWs)   bands (ev):

   -13.9657 -13.9491 -13.8125 -13.7400 -13.7095 -13.6621 -13.6234 -13.5886
   -13.4425 -13.4274  -0.8329   1.3616   4.4841   5.8511   9.6727  11.1144
    12.3129  13.2292

     occupation numbers 
     1.0000   1.0000   1.0000   1.0000   1.0000   1.0000   1.0000   1.0000
     1.0000   1.0000   1.0000   1.0000   1.0000   1.0000   0.0000   0.0000
     0.0000   0.0000

          k = 0.0000-0.2828 0.4243 (  3070 PWs)   bands (ev):

   -13.9548 -13.9457 -13.8318 -13.7640 -13.7222 -13.6508 -13.5884 -13.5783
   -13.4461 -13.4410  -1.3456   2.0697   4.7466   6.1947   9.8044  10.7509
    11.5845  12.9099

     occupation numbers 
     1.0000   1.0000   1.0000   1.0000   1.0000   1.0000   1.0000   1.0000
     1.0000   1.0000   1.0000   1.0000   1.0000   1.0000   0.0000   0.0000
     0.0000   0.0000

          k =-0.1414-0.5657 0.7071 (  3084 PWs)   bands (ev):

   -13.9509 -13.9502 -13.8383 -13.7362 -13.7223 -13.6580 -13.6227 -13.5579
   -13.4423 -13.4420  -0.8060   1.3817   5.0600   5.3275   9.0240   9.4751
    13.1225  14.5656

     occupation numbers 
     1.0000   1.0000   1.0000   1.0000   1.0000   1.0000   1.0000   1.0000
     1.0000   1.0000   1.0000   1.0000   1.0000   1.0000   0.0000   0.0000
     0.0000   0.0000

          k =-0.0707-0.4950 0.6364 (  3087 PWs)   bands (ev):

   -13.9649 -13.9531 -13.8045 -13.7397 -13.7004 -13.6533 -13.6474 -13.5916
   -13.4382 -13.4265  -0.2849   0.7846   4.5928   5.2566   9.2836  10.4123
    12.7848  13.9747

     occupation numbers 
     1.0000   1.0000   1.0000   1.0000   1.0000   1.0000   1.0000   1.0000
     1.0000   1.0000   1.0000   1.0000   1.0000   1.0000   0.0000   0.0000
     0.0000   0.0000

          k =-0.0000-0.4243 0.5657 (  3079 PWs)   bands (ev):

   -13.9709 -13.9529 -13.7980 -13.7049 -13.7026 -13.6783 -13.6560 -13.5972
   -13.4379 -13.4205  -0.3268   0.8399   4.3077   5.4688   9.4720  11.8648
    12.5430  12.5496

     occupation numbers 
     1.0000   1.0000   1.0000   1.0000   1.0000   1.0000   1.0000   1.0000
     1.0000   1.0000   1.0000   1.0000   1.0000   1.0000   0.0000   0.0000
     0.0000   0.0000

          k =-0.7071 0.1414 0.0000 (  3090 PWs)   bands (ev):

   -13.9547 -13.9547 -13.7930 -13.7930 -13.6723 -13.6723 -13.6033 -13.6033
   -13.4361 -13.4361   0.2214   0.2214   5.0286   5.0286   9.1137   9.1137
    14.3859  14.3859

     occupation numbers 
     1.0000   1.0000   1.0000   1.0000   1.0000   1.0000   1.0000   1.0000
     1.0000   1.0000   1.0000   1.0000   1.0000   1.0000   0.0000   0.0000
     0.0000   0.0000

          k =-0.1414-0.4243 0.7071 (  3089 PWs)   bands (ev):

   -13.9643 -13.9562 -13.8028 -13.7243 -13.7069 -13.6769 -13.6314 -13.5946
   -13.4354 -13.4281  -0.6015   1.1584   4.5400   5.3012  10.5274  10.5302
    11.4270  13.7201

     occupation numbers 
     1.0000   1.0000   1.0000   1.0000   1.0000   1.0000   1.0000   1.0000
     1.0000   1.0000   1.0000   1.0000   1.0000   1.0000   0.0000   0.0000
     0.0000   0.0000

          k =-0.0707-0.3536 0.6364 (  3082 PWs)   bands (ev):

   -13.9689 -13.9587 -13.7842 -13.7179 -13.7028 -13.6718 -13.6510 -13.6091
   -13.4324 -13.4225  -0.2466   0.7695   4.4374   5.1165  10.5498  11.0434
    12.0862  12.3392

     occupation numbers 
     1.0000   1.0000   1.0000   1.0000   1.0000   1.0000   1.0000   1.0000
     1.0000   1.0000   1.0000   1.0000   1.0000   1.0000   0.0000   0.0000
     0.0000   0.0000

          k =-0.7071 0.2828 0.0000 (  3076 PWs)   bands (ev):

   -13.9641 -13.9641 -13.7598 -13.7598 -13.6779 -13.6779 -13.6307 -13.6307
   -13.4267 -13.4267   0.2558   0.2558   4.7182   4.7182  10.5212  10.5212
    12.4508  12.4508

     occupation numbers 
     1.0000   1.0000   1.0000   1.0000   1.0000   1.0000   1.0000   1.0000
     1.0000   1.0000   1.0000   1.0000   1.0000   1.0000   0.0000   0.0000
     0.0000   0.0000

     the Fermi energy is     7.7304 ev

!    total energy              =    -317.83301700 Ry
     Harris-Foulkes estimate   =    -317.83301700 Ry
     estimated scf accuracy    <          2.8E-11 Ry

     The total energy is the sum of the following terms:

     one-electron contribution =    -154.95515558 Ry
     hartree contribution      =      94.69104859 Ry
     xc contribution           =     -85.12634273 Ry
     ewald contribution        =    -172.44253092 Ry
     smearing contrib. (-TS)   =      -0.00003637 Ry

     convergence has been achieved in   8 iterations

     Forces acting on atoms (cartesian axes, Ry/au):

     atom    1 type  1   force =    -0.00000000    0.00000000    0.00000000
     atom    2 type  1   force =     0.00000000   -0.00000000   -0.00000000
     The non-local contrib.  to forces
     atom    1 type  1   force =    -0.00000000    0.00000000    0.00000000
     atom    2 type  1   force =     0.00000000   -0.00000000   -0.00000000
     The ionic contribution  to forces
     atom    1 type  1   force =     0.00000000   -0.00000000   -0.00000000
     atom    2 type  1   force =    -0.00000000    0.00000000    0.00000000
     The local contribution  to forces
     atom    1 type  1   force =    -0.00000000   -0.00000000   -0.00000000
     atom    2 type  1   force =    -0.00000000   -0.00000000   -0.00000000
     The core correction contribution to forces
     atom    1 type  1   force =    -0.00000000    0.00000000    0.00000000
     atom    2 type  1   force =    -0.00000000   -0.00000000   -0.00000000
     The Hubbard contrib.    to forces
     atom    1 type  1   force =     0.00000000    0.00000000    0.00000000
     atom    2 type  1   force =     0.00000000    0.00000000    0.00000000
     The SCF correction term to forces
     atom    1 type  1   force =     0.00000000   -0.00000000    0.00000000
     atom    2 type  1   force =     0.00000000    0.00000000    0.00000000

     Total force =     0.000000     Total SCF correction =     0.000000


     Computing stress (Cartesian axis) and pressure

          total   stress  (Ry/bohr**3)                   (kbar)     P=   -0.08
  -0.00000055   0.00000000   0.00000000         -0.08      0.00      0.00
   0.00000000  -0.00000055   0.00000000          0.00     -0.08      0.00
   0.00000000   0.00000000  -0.00000055          0.00      0.00     -0.08

     kinetic stress (kbar)   6483.72     -0.00      0.00
                               -0.00   6483.72     -0.00
                                0.00     -0.00   6483.72

     local   stress (kbar)  -1110.15      0.00      0.00
                                0.00  -1110.15      0.00
                                0.00      0.00  -1110.15

     nonloc. stress (kbar)   8027.55      0.00     -0.00
                                0.00   8027.55     -0.00
                               -0.00     -0.00   8027.55

     hartree stress (kbar)  10114.82     -0.00     -0.00
                               -0.00  10114.82      0.00
                               -0.00      0.00  10114.82

     exc-cor stress (kbar)  10247.11      0.00     -0.00
                                0.00  10247.11     -0.00
                               -0.00     -0.00  10247.11

     corecor stress (kbar) -15342.97      0.00     -0.00
                                0.00 -15342.97     -0.00
                               -0.00     -0.00 -15342.97

     ewald   stress (kbar) -18420.17     -0.00     -0.00
                               -0.00 -18420.17     -0.00
                               -0.00     -0.00 -18420.17

     hubbard stress (kbar)      0.00      0.00      0.00
                                0.00      0.00      0.00
                                0.00      0.00      0.00

     london  stress (kbar)      0.00      0.00      0.00
                                0.00      0.00      0.00
                                0.00      0.00      0.00

     DFT-D3  stress (kbar)      0.00      0.00      0.00
                                0.00      0.00      0.00
                                0.00      0.00      0.00

     XDM     stress (kbar)      0.00      0.00      0.00
                                0.00      0.00      0.00
                                0.00      0.00      0.00

     dft-nl  stress (kbar)      0.00      0.00      0.00
                                0.00      0.00      0.00
                                0.00      0.00      0.00

     TS-vdW  stress (kbar)      0.00      0.00      0.00
                                0.00      0.00      0.00
                                0.00      0.00      0.00



     Writing output data file scf.save/
 
     init_run     :      0.25s CPU      0.28s WALL (       1 calls)
     electrons    :      3.07s CPU      3.37s WALL (       1 calls)
     forces       :      0.04s CPU      0.05s WALL (       1 calls)
     stress       :      0.10s CPU      0.10s WALL (       1 calls)

     Called by init_run:
     wfcinit      :      0.09s CPU      0.10s WALL (       1 calls)
     wfcinit:atom :      0.00s CPU      0.00s WALL (      12 calls)
     wfcinit:wfcr :      0.09s CPU      0.10s WALL (      12 calls)
     potinit      :      0.02s CPU      0.02s WALL (       1 calls)
     hinit0       :      0.05s CPU      0.06s WALL (       1 calls)

     Called by electrons:
     c_bands      :      2.52s CPU      2.75s WALL (       8 calls)
     sum_band     :      0.37s CPU      0.39s WALL (       8 calls)
     v_of_rho     :      0.12s CPU      0.12s WALL (       9 calls)
     v_h          :      0.01s CPU      0.01s WALL (       9 calls)
     v_xc         :      0.14s CPU      0.14s WALL (      11 calls)
     newd         :      0.05s CPU      0.06s WALL (       9 calls)
     mix_rho      :      0.01s CPU      0.01s WALL (       8 calls)

     Called by c_bands:
     init_us_2    :      0.03s CPU      0.03s WALL (     228 calls)
     cegterg      :      2.33s CPU      2.52s WALL (      96 calls)

     Called by sum_band:
     sum_band:bec :      0.00s CPU      0.00s WALL (      96 calls)
     addusdens    :      0.05s CPU      0.06s WALL (       8 calls)

     Called by *egterg:
     h_psi        :      1.57s CPU      1.63s WALL (     386 calls)
     s_psi        :      0.02s CPU      0.02s WALL (     386 calls)
     g_psi        :      0.01s CPU      0.01s WALL (     278 calls)
     cdiaghg      :      0.57s CPU      0.69s WALL (     374 calls)
     cegterg:over :      0.13s CPU      0.15s WALL (     278 calls)
     cegterg:upda :      0.05s CPU      0.05s WALL (     278 calls)
     cegterg:last :      0.02s CPU      0.02s WALL (      96 calls)
     cdiaghg:chol :      0.03s CPU      0.04s WALL (     374 calls)
     cdiaghg:inve :      0.01s CPU      0.01s WALL (     374 calls)
     cdiaghg:para :      0.05s CPU      0.05s WALL (     748 calls)

     Called by h_psi:
     h_psi:pot    :      1.57s CPU      1.62s WALL (     386 calls)
     h_psi:calbec :      0.04s CPU      0.05s WALL (     386 calls)
     vloc_psi     :      1.50s CPU      1.55s WALL (     386 calls)
     add_vuspsi   :      0.02s CPU      0.02s WALL (     386 calls)

     General routines
     calbec       :      0.06s CPU      0.06s WALL (     542 calls)
     fft          :      0.08s CPU      0.09s WALL (     140 calls)
     ffts         :      0.01s CPU      0.01s WALL (      17 calls)
     fftw         :      1.55s CPU      1.61s WALL (   12114 calls)
     interpolate  :      0.01s CPU      0.01s WALL (       9 calls)
 
     Parallel routines
     fft_scatt_xy :      0.23s CPU      0.24s WALL (   12271 calls)
     fft_scatt_yz :      0.49s CPU      0.51s WALL (   12271 calls)
 
     PWSCF        :      3.53s CPU      4.12s WALL

 
   This run was terminated on:  17:49:43   1Nov2020            

=------------------------------------------------------------------------------=
   JOB DONE.
=------------------------------------------------------------------------------=
