
     Program PWSCF v.6.3 starts on  4Dec2019 at 19:57:47 

     This program is part of the open-source Quantum ESPRESSO suite
     for quantum simulation of materials; please cite
         "P. Giannozzi et al., J. Phys.:Condens. Matter 21 395502 (2009);
         "P. Giannozzi et al., J. Phys.:Condens. Matter 29 465901 (2017);
          URL http://www.quantum-espresso.org", 
     in publications or presentations arising from this work. More details at
     http://www.quantum-espresso.org/quote

     Parallel version (MPI), running on   448 processors

     MPI processes distributed on    14 nodes
     R & G space division:  proc/nbgrp/npool/nimage =     448
     Reading input from scf.pwi
Warning: card &IONS ignored
Warning: card / ignored
Warning: card &CELL ignored
Warning: card    CELL_DOFREE      = '2DXY' ignored
Warning: card / ignored

     Current dimensions of program PWSCF are:
     Max number of different atomic species (ntypx) = 10
     Max number of k-points (npk) =  40000
     Max angular momentum in pseudopotentials (lmaxx) =  3

     gamma-point specific algorithms are used

     Subspace diagonalization in iterative solution of the eigenvalue problem:
     one sub-group per band group will be used
     scalapack distributed-memory algorithm (size of sub-group: 14* 14 procs)

 
     Parallelization info
     --------------------
     sticks:   dense  smooth     PW     G-vecs:    dense   smooth      PW
     Min         460     229     56               184940    65380    8140
     Max         462     232     58               184994    65412    8198
     Sum      206659  103297  25827             82864339 29296605 3662131
 


     bravais-lattice index     =            0
     lattice parameter (alat)  =      74.9798  a.u.
     unit-cell volume          =  613376.7080 (a.u.)^3
     number of atoms/cell      =          200
     number of atomic types    =            1
     number of electrons       =      2800.00
     number of Kohn-Sham states=         1680
     kinetic-energy cutoff     =      50.0000  Ry
     charge density cutoff     =     400.0000  Ry
     convergence threshold     =      2.0E-08
     mixing beta               =       0.4000
     number of iterations used =            8  local-TF  mixing
     Exchange-correlation      = SLA  PW   PSX  PSC ( 1  4 10  8 0 0)

     celldm(1)=  74.979798  celldm(2)=   0.000000  celldm(3)=   0.000000
     celldm(4)=   0.000000  celldm(5)=   0.000000  celldm(6)=   0.000000

     crystal axes: (cart. coord. in units of alat)
               a(1) = (   1.000000   0.000000   0.000000 )  
               a(2) = (   0.000000   1.154702   0.000000 )  
               a(3) = (   0.000000   0.000000   1.260157 )  

     reciprocal axes: (cart. coord. in units 2 pi/alat)
               b(1) = (  1.000000  0.000000  0.000000 )  
               b(2) = (  0.000000  0.866024  0.000000 )  
               b(3) = (  0.000000  0.000000  0.793552 )  


     PseudoPot. # 1 for Sn read from file:
     /n/home08/xiey/q-e/pseudo/sn_pbesol_v1.4.uspp.F.UPF
     MD5 check sum: 463fec1d5456f1e96ec1bfcad4b7b038
     Pseudo is Ultrasoft + core correction, Zval = 14.0
     Generated by new atomic code, or converted to UPF format
     Using radial grid of  891 points,  6 beta functions with: 
                l(1) =   0
                l(2) =   0
                l(3) =   1
                l(4) =   1
                l(5) =   2
                l(6) =   2
     Q(r) pseudized with  8 coefficients,  rinner =    1.350   1.350   1.350
                                                       1.350   1.350

     atomic species   valence    mass     pseudopotential
        Sn            14.00   118.71000     Sn( 1.00)

     No symmetry found


                                    s                        frac. trans.

      isym =  1     identity                                     

 cryst.   s( 1) = (     1          0          0      )
                  (     0          1          0      )
                  (     0          0          1      )

 cart.    s( 1) = (  1.0000000  0.0000000  0.0000000 )
                  (  0.0000000  1.0000000  0.0000000 )
                  (  0.0000000  0.0000000  1.0000000 )


   Cartesian axes

     site n.     atom                  positions (alat units)
         1           Sn  tau(   1) = (   0.8303199   0.9604538   0.1310682  )
         2           Sn  tau(   2) = (   0.6450264   0.0127163   0.1054625  )
         3           Sn  tau(   3) = (   0.5569339  -0.0073840   0.1320160  )
         4           Sn  tau(   4) = (   0.5459277   1.1119927   0.2180870  )
         5           Sn  tau(   5) = (   0.0047424   0.8580358   1.2011513  )
         6           Sn  tau(   6) = (   0.9935656   0.8584037   0.0847743  )
         7           Sn  tau(   7) = (   0.9795527   1.0080877   1.1663457  )
         8           Sn  tau(   8) = (   0.7962931   0.7829808   0.0624345  )
         9           Sn  tau(   9) = (   0.9391647   0.9214343   0.0001908  )
        10           Sn  tau(  10) = (   0.6997601   0.7942744   1.2112981  )
        11           Sn  tau(  11) = (   0.5469938   1.1052811   0.0697943  )
        12           Sn  tau(  12) = (   0.0083407   0.9656431   0.0370353  )
        13           Sn  tau(  13) = (   0.6182582   0.9279669   0.0443946  )
        14           Sn  tau(  14) = (   0.5039342   0.9931775   1.2217120  )
        15           Sn  tau(  15) = (   0.6533535   0.8644122   0.1228451  )
        16           Sn  tau(  16) = (   0.5348181   0.8941997   1.2369725  )
        17           Sn  tau(  17) = (   0.6782290   1.0152630   0.2657343  )
        18           Sn  tau(  18) = (   0.7018040   0.8166799   1.1152287  )
        19           Sn  tau(  19) = (   0.8246441   0.8484082   0.0353749  )
        20           Sn  tau(  20) = (   0.8350883   0.0266075   1.2262712  )
        21           Sn  tau(  21) = (   0.6883027   0.9613233   1.2399288  )
        22           Sn  tau(  22) = (   0.7299660   1.0621837   0.9815967  )
        23           Sn  tau(  23) = (   0.7374236   0.7440521   1.0987988  )
        24           Sn  tau(  24) = (   0.7774739   0.9359966   0.1913541  )
        25           Sn  tau(  25) = (   0.7577752   0.8264991   1.2550734  )
        26           Sn  tau(  26) = (   0.8426266   1.1259728   0.1450952  )
        27           Sn  tau(  27) = (   0.7110107   0.9441624   0.1488165  )
        28           Sn  tau(  28) = (   0.7278590   0.7548264   0.0180246  )
        29           Sn  tau(  29) = (   0.7326678   0.9538304   1.0870390  )
        30           Sn  tau(  30) = (   0.8144469   0.7434472   1.0970699  )
        31           Sn  tau(  31) = (   0.9555291   0.8749698   1.1450289  )
        32           Sn  tau(  32) = (   0.9218577   1.0577379   1.1908533  )
        33           Sn  tau(  33) = (   0.9654440   1.0350550   1.2537931  )
        34           Sn  tau(  34) = (   0.6921664   0.8893885   1.1150347  )
        35           Sn  tau(  35) = (   0.6360491   1.1572373   0.1917485  )
        36           Sn  tau(  36) = (   0.8474530   0.9922072   0.0590409  )
        37           Sn  tau(  37) = (   0.9594330   0.9669662   0.1437050  )
        38           Sn  tau(  38) = (   0.8256523   0.9912873   0.2274656  )
        39           Sn  tau(  39) = (   0.7400221   0.7751275   0.1036298  )
        40           Sn  tau(  40) = (   0.5770561   1.0429663   0.1806694  )
        41           Sn  tau(  41) = (   0.6340555   1.0670151   0.0569435  )
        42           Sn  tau(  42) = (   0.7968299   0.8972166   1.1038168  )
        43           Sn  tau(  43) = (   0.7942870   0.8630209   0.2005124  )
        44           Sn  tau(  44) = (   0.7731818   0.8188121   1.0744980  )
        45           Sn  tau(  45) = (   0.7699659   1.0094965   0.1109936  )
        46           Sn  tau(  46) = (   0.6876752   1.0523368   0.1183512  )
        47           Sn  tau(  47) = (   0.6603197   1.0796923   1.1039453  )
        48           Sn  tau(  48) = (   0.7364029   1.0428504   1.0592551  )
        49           Sn  tau(  49) = (   0.0248025   0.9929078   1.2290738  )
        50           Sn  tau(  50) = (   0.8702946   0.8317388   0.1774941  )
        51           Sn  tau(  51) = (   0.8842773   0.9099593   1.1354996  )
        52           Sn  tau(  52) = (   0.6666406   0.0425517   1.2080343  )
        53           Sn  tau(  53) = (   0.6151884   1.1044141   0.1295650  )
        54           Sn  tau(  54) = (   0.7175283   0.8556339   0.1602786  )
        55           Sn  tau(  55) = (   0.9295900   0.9618021   1.1940591  )
        56           Sn  tau(  56) = (   0.8577157   0.7241391   1.2312993  )
        57           Sn  tau(  57) = (   0.6774074   0.9421210   0.2244798  )
        58           Sn  tau(  58) = (   0.4812010   1.1184270   1.2230704  )
        59           Sn  tau(  59) = (   0.7833135   0.7847602   1.1545482  )
        60           Sn  tau(  60) = (   0.8301082   1.0578513   1.1784407  )
        61           Sn  tau(  61) = (   0.0033776   0.9352909   1.1714922  )
        62           Sn  tau(  62) = (   0.6060447   1.0436165   1.1459640  )
        63           Sn  tau(  63) = (   0.9659153   0.8020672   1.1567005  )
        64           Sn  tau(  64) = (   0.8096735   1.1241784   0.0241438  )
        65           Sn  tau(  65) = (   0.8884459   1.0398109   0.1027781  )
        66           Sn  tau(  66) = (   0.8293168   1.0401385   0.1668811  )
        67           Sn  tau(  67) = (   0.6906920   1.1254587   1.2211953  )
        68           Sn  tau(  68) = (   0.8180434   1.0739107   0.0857194  )
        69           Sn  tau(  69) = (   0.7212810   1.0889141   0.0510162  )
        70           Sn  tau(  70) = (   0.5334975   0.0062096   1.2448888  )
        71           Sn  tau(  71) = (   0.8179829   1.1003060   0.2148908  )
        72           Sn  tau(  72) = (   0.6683015   0.8730165   1.1867779  )
        73           Sn  tau(  73) = (   0.9901254   0.8377472   0.0186967  )
        74           Sn  tau(  74) = (   0.8891818   1.1446610   0.0449574  )
        75           Sn  tau(  75) = (   0.5348333   0.9518570   0.0163992  )
        76           Sn  tau(  76) = (   0.6198308   0.8329486   1.1282008  )
        77           Sn  tau(  77) = (   0.7304978   1.1003891   1.1484364  )
        78           Sn  tau(  78) = (   0.5466359   1.0874549   1.2554842  )
        79           Sn  tau(  79) = (   0.7244869   0.0814089  -0.0017118  )
        80           Sn  tau(  80) = (   0.9092813   0.8383874   1.1969827  )
        81           Sn  tau(  81) = (   0.7507788   0.0095180   0.0535262  )
        82           Sn  tau(  82) = (   0.7573316   0.0167416   1.2189901  )
        83           Sn  tau(  83) = (   0.6483179   0.9831441   0.0987214  )
        84           Sn  tau(  84) = (   0.7159632   1.1280975   0.2172581  )
        85           Sn  tau(  85) = (   0.5874120   0.0004731   1.1962972  )
        86           Sn  tau(  86) = (   0.5755817   0.9635865   0.1361728  )
        87           Sn  tau(  87) = (   0.7685596   0.9940722   1.0060261  )
        88           Sn  tau(  88) = (   0.7244163   0.8876469   0.2260280  )
        89           Sn  tau(  89) = (   0.6231551   1.0970598   1.2221833  )
        90           Sn  tau(  90) = (   0.6950672   0.9811405   1.0144817  )
        91           Sn  tau(  91) = (   0.7913861   0.9891929   0.0081119  )
        92           Sn  tau(  92) = (   0.6837687   0.0440148   0.2397164  )
        93           Sn  tau(  93) = (   0.6598181   0.9907278   1.0841180  )
        94           Sn  tau(  94) = (   0.9241864   0.8433020   0.0612018  )
        95           Sn  tau(  95) = (   0.7454055   0.9977922   1.2130925  )
        96           Sn  tau(  96) = (   0.6205012   1.1507248   0.2614523  )
        97           Sn  tau(  97) = (   0.5549781   0.9128400   0.0832276  )
        98           Sn  tau(  98) = (   0.6755903   0.7974726   0.0631013  )
        99           Sn  tau(  99) = (   0.9226717   0.9013549   0.1613409  )
       100           Sn  tau( 100) = (   0.7873939   0.7389106   1.2201670  )
       101           Sn  tau( 101) = (   0.8639056   0.8029493   0.1002888  )
       102           Sn  tau( 102) = (   0.7183020   0.8595202   1.0470215  )
       103           Sn  tau( 103) = (   0.5732630   0.0274109   0.2059920  )
       104           Sn  tau( 104) = (   0.5782482   1.0369377   0.1057806  )
       105           Sn  tau( 105) = (   0.8296646   0.7997888   1.2284816  )
       106           Sn  tau( 106) = (   0.8656471   0.9253912   1.0536726  )
       107           Sn  tau( 107) = (   0.6448525   0.7610087   1.1565821  )
       108           Sn  tau( 108) = (   0.8030551   0.9206328   0.0235572  )
       109           Sn  tau( 109) = (   0.8054494   1.1327852   1.1648915  )
       110           Sn  tau( 110) = (   0.6320745   0.9279820   0.1652464  )
       111           Sn  tau( 111) = (   0.8577585   0.9165852   1.2054711  )
       112           Sn  tau( 112) = (   0.6550623   1.0589728   0.1930565  )
       113           Sn  tau( 113) = (   0.6676790   1.0499350   1.0344325  )
       114           Sn  tau( 114) = (   0.7127044   1.0089043   0.0525780  )
       115           Sn  tau( 115) = (   0.5952981   1.0647217   0.2505005  )
       116           Sn  tau( 116) = (   0.8588650   0.7965225   1.1194099  )
       117           Sn  tau( 117) = (   0.7295653   1.0926417   0.2802740  )
       118           Sn  tau( 118) = (   0.8891516   0.7825675   0.0217030  )
       119           Sn  tau( 119) = (   0.7146450   0.8939452   1.2571098  )
       120           Sn  tau( 120) = (   0.7323981   0.8481209   0.0691597  )
       121           Sn  tau( 121) = (   0.7957311   0.8068180   0.1406116  )
       122           Sn  tau( 122) = (   0.7034498   1.1272431   0.1241348  )
       123           Sn  tau( 123) = (   0.9120940   0.9982307   0.0275574  )
       124           Sn  tau( 124) = (   0.6573633   1.1338009   1.1499385  )
       125           Sn  tau( 125) = (   0.7720931   1.1038092   0.1511344  )
       126           Sn  tau( 126) = (   0.5608303   1.0210345   0.0330078  )
       127           Sn  tau( 127) = (   0.8193389   0.9794998   1.1472090  )
       128           Sn  tau( 128) = (   0.8989606   1.0757304   0.0307428  )
       129           Sn  tau( 129) = (   0.9621197   0.9287533   0.0841117  )
       130           Sn  tau( 130) = (   0.6168972   0.9123032   1.1095908  )
       131           Sn  tau( 131) = (   0.8176276   1.0533147   1.0364261  )
       132           Sn  tau( 132) = (   0.8607728   0.8795693   0.1157683  )
       133           Sn  tau( 133) = (   0.6612547   0.0928353   0.0384282  )
       134           Sn  tau( 134) = (   0.8249163   0.0126080   0.0830388  )
       135           Sn  tau( 135) = (   0.8808043   1.1001673   1.1347990  )
       136           Sn  tau( 136) = (   0.7561975   1.0184235   1.1383249  )
       137           Sn  tau( 137) = (   0.6782063   0.0212811   0.0234254  )
       138           Sn  tau( 138) = (   0.8593463   0.8616323   1.0914269  )
       139           Sn  tau( 139) = (   0.5193560   1.0188620   1.1438041  )
       140           Sn  tau( 140) = (   0.7733129   0.9126736   1.0388179  )
       141           Sn  tau( 141) = (   0.7607088   1.0865350   1.2198696  )
       142           Sn  tau( 142) = (   0.6572449   0.7483946   0.0084936  )
       143           Sn  tau( 143) = (   0.7846392   1.0784700   1.0994339  )
       144           Sn  tau( 144) = (   0.5826134   0.9859341   1.1007621  )
       145           Sn  tau( 145) = (   0.7653790   1.0435913   0.2164786  )
       146           Sn  tau( 146) = (   0.5726506   0.8726687   1.1645891  )
       147           Sn  tau( 147) = (   0.8982675   0.7644212   1.1750232  )
       148           Sn  tau( 148) = (   0.9529231   0.7882004   1.2314707  )
       149           Sn  tau( 149) = (   0.6193545   0.7879509   1.2153658  )
       150           Sn  tau( 150) = (   0.9452638   0.8313961   0.1384522  )
       151           Sn  tau( 151) = (   0.5379862   1.0853252   1.1770042  )
       152           Sn  tau( 152) = (   0.7088886   0.7115627   1.2115072  )
       153           Sn  tau( 153) = (   0.6348998   1.0004637   0.0189415  )
       154           Sn  tau( 154) = (   0.8906637   0.9848227   0.1698137  )
       155           Sn  tau( 155) = (   0.5682577   0.0283119   0.0703858  )
       156           Sn  tau( 156) = (   0.9057428   0.9788168   1.1000086  )
       157           Sn  tau( 157) = (   0.6587369   0.9503523   1.1630038  )
       158           Sn  tau( 158) = (   0.5980150   0.0557977  -0.0054492  )
       159           Sn  tau( 159) = (   0.6785869   1.0262365   1.1556873  )
       160           Sn  tau( 160) = (   0.6850792   0.7061818   1.1410065  )
       161           Sn  tau( 161) = (   0.8869387   0.8747228   1.2576970  )
       162           Sn  tau( 162) = (   0.5796394   1.0269951   1.2147685  )
       163           Sn  tau( 163) = (   0.6584294   1.0955703   0.2877442  )
       164           Sn  tau( 164) = (   0.7641238   0.7028424   1.1551228  )
       165           Sn  tau( 165) = (   0.7739455   0.8905403   0.1277749  )
       166           Sn  tau( 166) = (   0.7466303   0.9366368   0.0748548  )
       167           Sn  tau( 167) = (   0.8619927   0.9163382   0.1928375  )
       168           Sn  tau( 168) = (   0.8565614   1.0399470   1.1057448  )
       169           Sn  tau( 169) = (   0.6377805   0.0724270   0.1752097  )
       170           Sn  tau( 170) = (   0.6077258   0.8611761   0.0645513  )
       171           Sn  tau( 171) = (   0.6613656   0.0868442   0.1123815  )
       172           Sn  tau( 172) = (   0.7887397   0.8905529   1.2212155  )
       173           Sn  tau( 173) = (   0.9352935   1.0509784   1.1113626  )
       174           Sn  tau( 174) = (   0.8623027   0.9936186   1.2210088  )
       175           Sn  tau( 175) = (   0.7571048   0.8609064   1.1569651  )
       176           Sn  tau( 176) = (   0.8174562   0.9860400   1.0629877  )
       177           Sn  tau( 177) = (   0.6447769   0.8463793  -0.0022910  )
       178           Sn  tau( 178) = (   0.8281902   1.0548168  -0.0010429  )
       179           Sn  tau( 179) = (   0.8747051   0.9241789   0.0532137  )
       180           Sn  tau( 180) = (   0.7935157   0.0580486   0.0164709  )
       181           Sn  tau( 181) = (   0.7062625   1.0097637   0.1883060  )
       182           Sn  tau( 182) = (   0.5024145   0.9366998   1.1689694  )
       183           Sn  tau( 183) = (   0.7580952   0.0261871   0.1226617  )
       184           Sn  tau( 184) = (   0.9647030   1.0095999   0.0769487  )
       185           Sn  tau( 185) = (   0.6921134   1.0421119   1.2429179  )
       186           Sn  tau( 186) = (   0.8771423   1.1165620   1.2261150  )
       187           Sn  tau( 187) = (   0.7075075   0.0598688   0.1656038  )
       188           Sn  tau( 188) = (   0.8353353   0.8475311   1.1700103  )
       189           Sn  tau( 189) = (   0.7477594   0.9844169   0.2545643  )
       190           Sn  tau( 190) = (   0.7454886   0.9362008   1.1638103  )
       191           Sn  tau( 191) = (   0.4676367   1.0579849   1.1853666  )
       192           Sn  tau( 192) = (   0.6171996   0.9873783   0.2081164  )
       193           Sn  tau( 193) = (   0.7306818   0.0911441   0.0790045  )
       194           Sn  tau( 194) = (   0.6065185   0.8938595   1.2290436  )
       195           Sn  tau( 195) = (   0.6853212   0.9023681   0.0654377  )
       196           Sn  tau( 196) = (   0.6162822   1.1380653   0.0310273  )
       197           Sn  tau( 197) = (   0.5781877   0.9614493   1.1799403  )
       198           Sn  tau( 198) = (   0.0085458   0.9105843   1.2465850  )
       199           Sn  tau( 199) = (   0.6529830   0.9236950   1.0407031  )
       200           Sn  tau( 200) = (   0.8399727   0.7141611   1.1583463  )

   Crystallographic axes

     site n.     atom                  positions (cryst. coord.)
         1           Sn  tau(   1) = (  0.8303199  0.8317764  0.1040094  )
         2           Sn  tau(   2) = (  0.6450264  0.0110126  0.0836900  )
         3           Sn  tau(   3) = (  0.5569339 -0.0063947  0.1047616  )
         4           Sn  tau(   4) = (  0.5459277  0.9630128  0.1730634  )
         5           Sn  tau(   5) = (  0.0047424  0.7430799  0.9531760  )
         6           Sn  tau(   6) = (  0.9935656  0.7433986  0.0672728  )
         7           Sn  tau(   7) = (  0.9795527  0.8730285  0.9255560  )
         8           Sn  tau(   8) = (  0.7962931  0.6780805  0.0495450  )
         9           Sn  tau(   9) = (  0.9391647  0.7979845  0.0001514  )
        10           Sn  tau(  10) = (  0.6997601  0.6878610  0.9612280  )
        11           Sn  tau(  11) = (  0.5469938  0.9572004  0.0553854  )
        12           Sn  tau(  12) = (  0.0083407  0.8362705  0.0293894  )
        13           Sn  tau(  13) = (  0.6182582  0.8036420  0.0352294  )
        14           Sn  tau(  14) = (  0.5039342  0.8601159  0.9694920  )
        15           Sn  tau(  15) = (  0.6533535  0.7486020  0.0974840  )
        16           Sn  tau(  16) = (  0.5348181  0.7743988  0.9816020  )
        17           Sn  tau(  17) = (  0.6782290  0.8792425  0.2108740  )
        18           Sn  tau(  18) = (  0.7018040  0.7072647  0.8849920  )
        19           Sn  tau(  19) = (  0.8246441  0.7347422  0.0280718  )
        20           Sn  tau(  20) = (  0.8350883  0.0230427  0.9731100  )
        21           Sn  tau(  21) = (  0.6883027  0.8325294  0.9839480  )
        22           Sn  tau(  22) = (  0.7299660  0.9198770  0.7789480  )
        23           Sn  tau(  23) = (  0.7374236  0.6443672  0.8719540  )
        24           Sn  tau(  24) = (  0.7774739  0.8105959  0.1518494  )
        25           Sn  tau(  25) = (  0.7577752  0.7157684  0.9959660  )
        26           Sn  tau(  26) = (  0.8426266  0.9751199  0.1151406  )
        27           Sn  tau(  27) = (  0.7110107  0.8176677  0.1180936  )
        28           Sn  tau(  28) = (  0.7278590  0.6536981  0.0143034  )
        29           Sn  tau(  29) = (  0.7326678  0.8260404  0.8626220  )
        30           Sn  tau(  30) = (  0.8144469  0.6438434  0.8705820  )
        31           Sn  tau(  31) = (  0.9555291  0.7577451  0.9086400  )
        32           Sn  tau(  32) = (  0.9218577  0.9160268  0.9450040  )
        33           Sn  tau(  33) = (  0.9654440  0.8963829  0.9949500  )
        34           Sn  tau(  34) = (  0.6921664  0.7702321  0.8848380  )
        35           Sn  tau(  35) = (  0.6360491  1.0021957  0.1521624  )
        36           Sn  tau(  36) = (  0.8474530  0.8592756  0.0468520  )
        37           Sn  tau(  37) = (  0.9594330  0.8374163  0.1140374  )
        38           Sn  tau(  38) = (  0.8256523  0.8584790  0.1805058  )
        39           Sn  tau(  39) = (  0.7400221  0.6712793  0.0822356  )
        40           Sn  tau(  40) = (  0.5770561  0.9032343  0.1433706  )
        41           Sn  tau(  41) = (  0.6340555  0.9240611  0.0451876  )
        42           Sn  tau(  42) = (  0.7968299  0.7770114  0.8759360  )
        43           Sn  tau(  43) = (  0.7942870  0.7473972  0.1591170  )
        44           Sn  tau(  44) = (  0.7731818  0.7091113  0.8526700  )
        45           Sn  tau(  45) = (  0.7699659  0.8742486  0.0880792  )
        46           Sn  tau(  46) = (  0.6876752  0.9113494  0.0939178  )
        47           Sn  tau(  47) = (  0.6603197  0.9350399  0.8760380  )
        48           Sn  tau(  48) = (  0.7364029  0.9031339  0.8405740  )
        49           Sn  tau(  49) = (  0.0248025  0.8598824  0.9753340  )
        50           Sn  tau(  50) = (  0.8702946  0.7203061  0.1408508  )
        51           Sn  tau(  51) = (  0.8842773  0.7880469  0.9010780  )
        52           Sn  tau(  52) = (  0.6666406  0.0368508  0.9586380  )
        53           Sn  tau(  53) = (  0.6151884  0.9564495  0.1028166  )
        54           Sn  tau(  54) = (  0.7175283  0.7409998  0.1271894  )
        55           Sn  tau(  55) = (  0.9295900  0.8329441  0.9475480  )
        56           Sn  tau(  56) = (  0.8577157  0.6271221  0.9771000  )
        57           Sn  tau(  57) = (  0.6774074  0.8158998  0.1781364  )
        58           Sn  tau(  58) = (  0.4812010  0.9685851  0.9705700  )
        59           Sn  tau(  59) = (  0.7833135  0.6796214  0.9161940  )
        60           Sn  tau(  60) = (  0.8301082  0.9161250  0.9351540  )
        61           Sn  tau(  61) = (  0.0033776  0.8099848  0.9296400  )
        62           Sn  tau(  62) = (  0.6060447  0.9037974  0.9093820  )
        63           Sn  tau(  63) = (  0.9659153  0.6946097  0.9179020  )
        64           Sn  tau(  64) = (  0.8096735  0.9735659  0.0191594  )
        65           Sn  tau(  65) = (  0.8884459  0.9005016  0.0815598  )
        66           Sn  tau(  66) = (  0.8293168  0.9007853  0.1324288  )
        67           Sn  tau(  67) = (  0.6906920  0.9746747  0.9690820  )
        68           Sn  tau(  68) = (  0.8180434  0.9300329  0.0680228  )
        69           Sn  tau(  69) = (  0.7212810  0.9430262  0.0404840  )
        70           Sn  tau(  70) = (  0.5334975  0.0053777  0.9878840  )
        71           Sn  tau(  71) = (  0.8179829  0.9528918  0.1705270  )
        72           Sn  tau(  72) = (  0.6683015  0.7560536  0.9417700  )
        73           Sn  tau(  73) = (  0.9901254  0.7255095  0.0148368  )
        74           Sn  tau(  74) = (  0.8891818  0.9913043  0.0356760  )
        75           Sn  tau(  75) = (  0.5348333  0.8243313  0.0130136  )
        76           Sn  tau(  76) = (  0.6198308  0.7213538  0.8952860  )
        77           Sn  tau(  77) = (  0.7304978  0.9529638  0.9113440  )
        78           Sn  tau(  78) = (  0.5466359  0.9417624  0.9962920  )
        79           Sn  tau(  79) = (  0.7244869  0.0705021 -0.0013584  )
        80           Sn  tau(  80) = (  0.9092813  0.7260639  0.9498680  )
        81           Sn  tau(  81) = (  0.7507788  0.0082428  0.0424758  )
        82           Sn  tau(  82) = (  0.7573316  0.0144987  0.9673320  )
        83           Sn  tau(  83) = (  0.6483179  0.8514268  0.0783406  )
        84           Sn  tau(  84) = (  0.7159632  0.9769599  0.1724056  )
        85           Sn  tau(  85) = (  0.5874120  0.0004097  0.9493240  )
        86           Sn  tau(  86) = (  0.5755817  0.8344894  0.1080602  )
        87           Sn  tau(  87) = (  0.7685596  0.8608908  0.7983340  )
        88           Sn  tau(  88) = (  0.7244163  0.7687239  0.1793650  )
        89           Sn  tau(  89) = (  0.6231551  0.9500805  0.9698660  )
        90           Sn  tau(  90) = (  0.6950672  0.8496916  0.8050440  )
        91           Sn  tau(  91) = (  0.7913861  0.8566652  0.0064372  )
        92           Sn  tau(  92) = (  0.6837687  0.0381179  0.1902274  )
        93           Sn  tau(  93) = (  0.6598181  0.8579944  0.8603040  )
        94           Sn  tau(  94) = (  0.9241864  0.7303201  0.0485668  )
        95           Sn  tau(  95) = (  0.7454055  0.8641124  0.9626520  )
        96           Sn  tau(  96) = (  0.6205012  0.9965558  0.2074760  )
        97           Sn  tau(  97) = (  0.5549781  0.7905417  0.0660454  )
        98           Sn  tau(  98) = (  0.6755903  0.6906307  0.0500742  )
        99           Sn  tau(  99) = (  0.9226717  0.7805953  0.1280324  )
       100           Sn  tau( 100) = (  0.7873939  0.6399146  0.9682660  )
       101           Sn  tau( 101) = (  0.8639056  0.6953736  0.0795844  )
       102           Sn  tau( 102) = (  0.7183020  0.7443655  0.8308660  )
       103           Sn  tau( 103) = (  0.5732630  0.0237385  0.1634654  )
       104           Sn  tau( 104) = (  0.5782482  0.8980133  0.0839424  )
       105           Sn  tau( 105) = (  0.8296646  0.6926366  0.9748640  )
       106           Sn  tau( 106) = (  0.8656471  0.8014113  0.8361440  )
       107           Sn  tau( 107) = (  0.6448525  0.6590521  0.9178080  )
       108           Sn  tau( 108) = (  0.8030551  0.7972905  0.0186939  )
       109           Sn  tau( 109) = (  0.8054494  0.9810196  0.9244020  )
       110           Sn  tau( 110) = (  0.6320745  0.8036551  0.1311316  )
       111           Sn  tau( 111) = (  0.8577585  0.7937851  0.9566040  )
       112           Sn  tau( 112) = (  0.6550623  0.9170963  0.1532004  )
       113           Sn  tau( 113) = (  0.6676790  0.9092693  0.8208760  )
       114           Sn  tau( 114) = (  0.7127044  0.8737357  0.0417234  )
       115           Sn  tau( 115) = (  0.5952981  0.9220749  0.1987852  )
       116           Sn  tau( 116) = (  0.8588650  0.6898079  0.8883100  )
       117           Sn  tau( 117) = (  0.7295653  0.9462543  0.2224120  )
       118           Sn  tau( 118) = (  0.8891516  0.6777225  0.0172224  )
       119           Sn  tau( 119) = (  0.7146450  0.7741783  0.9975820  )
       120           Sn  tau( 120) = (  0.7323981  0.7344933  0.0548818  )
       121           Sn  tau( 121) = (  0.7957311  0.6987240  0.1115826  )
       122           Sn  tau( 122) = (  0.7034498  0.9762200  0.0985074  )
       123           Sn  tau( 123) = (  0.9120940  0.8644922  0.0218682  )
       124           Sn  tau( 124) = (  0.6573633  0.9818993  0.9125360  )
       125           Sn  tau( 125) = (  0.7720931  0.9559257  0.1199330  )
       126           Sn  tau( 126) = (  0.5608303  0.8842408  0.0261934  )
       127           Sn  tau( 127) = (  0.8193389  0.8482707  0.9103700  )
       128           Sn  tau( 128) = (  0.8989606  0.9316087  0.0243960  )
       129           Sn  tau( 129) = (  0.9621197  0.8043230  0.0667470  )
       130           Sn  tau( 130) = (  0.6168972  0.7900768  0.8805180  )
       131           Sn  tau( 131) = (  0.8176276  0.9121962  0.8224580  )
       132           Sn  tau( 132) = (  0.8607728  0.7617285  0.0918682  )
       133           Sn  tau( 133) = (  0.6612547  0.0803976  0.0304948  )
       134           Sn  tau( 134) = (  0.8249163  0.0109189  0.0658956  )
       135           Sn  tau( 135) = (  0.8808043  0.9527718  0.9005220  )
       136           Sn  tau( 136) = (  0.7561975  0.8819796  0.9033200  )
       137           Sn  tau( 137) = (  0.6782063  0.0184300  0.0185892  )
       138           Sn  tau( 138) = (  0.8593463  0.7461945  0.8661040  )
       139           Sn  tau( 139) = (  0.5193560  0.8823594  0.9076680  )
       140           Sn  tau( 140) = (  0.7733129  0.7903976  0.8243560  )
       141           Sn  tau( 141) = (  0.7607088  0.9409658  0.9680300  )
       142           Sn  tau( 142) = (  0.6572449  0.6481279  0.0067401  )
       143           Sn  tau( 143) = (  0.7846392  0.9339813  0.8724580  )
       144           Sn  tau( 144) = (  0.5826134  0.8538430  0.8735120  )
       145           Sn  tau( 145) = (  0.7653790  0.9037756  0.1717870  )
       146           Sn  tau( 146) = (  0.5726506  0.7557524  0.9241620  )
       147           Sn  tau( 147) = (  0.8982675  0.6620074  0.9324420  )
       148           Sn  tau( 148) = (  0.9529231  0.6826008  0.9772360  )
       149           Sn  tau( 149) = (  0.6193545  0.6823847  0.9644560  )
       150           Sn  tau( 150) = (  0.9452638  0.7200093  0.1098690  )
       151           Sn  tau( 151) = (  0.5379862  0.9399181  0.9340140  )
       152           Sn  tau( 152) = (  0.7088886  0.6162306  0.9613940  )
       153           Sn  tau( 153) = (  0.6348998  0.8664260  0.0150311  )
       154           Sn  tau( 154) = (  0.8906637  0.8528804  0.1347560  )
       155           Sn  tau( 155) = (  0.5682577  0.0245188  0.0558548  )
       156           Sn  tau( 156) = (  0.9057428  0.8476792  0.8729140  )
       157           Sn  tau( 157) = (  0.6587369  0.8230283  0.9229040  )
       158           Sn  tau( 158) = (  0.5980150  0.0483222 -0.0043242  )
       159           Sn  tau( 159) = (  0.6785869  0.8887458  0.9170980  )
       160           Sn  tau( 160) = (  0.6850792  0.6115707  0.9054480  )
       161           Sn  tau( 161) = (  0.8869387  0.7575312  0.9980480  )
       162           Sn  tau( 162) = (  0.5796394  0.8894028  0.9639820  )
       163           Sn  tau( 163) = (  0.6584294  0.9487906  0.2283400  )
       164           Sn  tau( 164) = (  0.7641238  0.6086787  0.9166500  )
       165           Sn  tau( 165) = (  0.7739455  0.7712296  0.1013960  )
       166           Sn  tau( 166) = (  0.7466303  0.8111503  0.0594012  )
       167           Sn  tau( 167) = (  0.8619927  0.7935712  0.1530266  )
       168           Sn  tau( 168) = (  0.8565614  0.9006194  0.8774660  )
       169           Sn  tau( 169) = (  0.6377805  0.0627236  0.1390380  )
       170           Sn  tau( 170) = (  0.6077258  0.7457995  0.0512248  )
       171           Sn  tau( 171) = (  0.6613656  0.0752092  0.0891806  )
       172           Sn  tau( 172) = (  0.7887397  0.7712405  0.9690980  )
       173           Sn  tau( 173) = (  0.9352935  0.9101729  0.8819240  )
       174           Sn  tau( 174) = (  0.8623027  0.8604979  0.9689340  )
       175           Sn  tau( 175) = (  0.7571048  0.7455659  0.9181120  )
       176           Sn  tau( 176) = (  0.8174562  0.8539347  0.8435360  )
       177           Sn  tau( 177) = (  0.6447769  0.7329851 -0.0018180  )
       178           Sn  tau( 178) = (  0.8281902  0.9134971 -0.0008276  )
       179           Sn  tau( 179) = (  0.8747051  0.8003614  0.0422278  )
       180           Sn  tau( 180) = (  0.7935157  0.0502715  0.0130705  )
       181           Sn  tau( 181) = (  0.7062625  0.8744800  0.1494306  )
       182           Sn  tau( 182) = (  0.5024145  0.8112049  0.9276380  )
       183           Sn  tau( 183) = (  0.7580952  0.0226786  0.0973384  )
       184           Sn  tau( 184) = (  0.9647030  0.8743381  0.0610628  )
       185           Sn  tau( 185) = (  0.6921134  0.9024943  0.9863200  )
       186           Sn  tau( 186) = (  0.8771423  0.9669699  0.9729860  )
       187           Sn  tau( 187) = (  0.7075075  0.0518478  0.1314152  )
       188           Sn  tau( 188) = (  0.8353353  0.7339826  0.9284640  )
       189           Sn  tau( 189) = (  0.7477594  0.8525290  0.2020100  )
       190           Sn  tau( 190) = (  0.7454886  0.8107727  0.9235440  )
       191           Sn  tau( 191) = (  0.4676367  0.9162407  0.9406500  )
       192           Sn  tau( 192) = (  0.6171996  0.8550937  0.1651512  )
       193           Sn  tau( 193) = (  0.7306818  0.0789330  0.0626942  )
       194           Sn  tau( 194) = (  0.6065185  0.7741041  0.9753100  )
       195           Sn  tau( 195) = (  0.6853212  0.7814728  0.0519282  )
       196           Sn  tau( 196) = (  0.6162822  0.9855923  0.0246218  )
       197           Sn  tau( 197) = (  0.5781877  0.8326385  0.9363440  )
       198           Sn  tau( 198) = (  0.0085458  0.7885882  0.9892300  )
       199           Sn  tau( 199) = (  0.6529830  0.7999424  0.8258520  )
       200           Sn  tau( 200) = (  0.8399727  0.6184810  0.9192080  )

     number of k points=     1  Marzari-Vanderbilt smearing, width (Ry)=  0.0200
                       cart. coord. in units 2pi/alat
        k(    1) = (   0.0000000   0.0000000   0.0000000), wk =   2.0000000

                       cryst. coord.
        k(    1) = (   0.0000000   0.0000000   0.0000000), wk =   2.0000000

     Dense  grid: 41432170 G-vectors     FFT dimensions: ( 480, 576, 625)

     Smooth grid: 14648303 G-vectors     FFT dimensions: ( 360, 400, 432)

     Dynamical RAM for                 wfc:     104.77 MB

     Dynamical RAM for     wfc (w. buffer):     104.77 MB

     Dynamical RAM for           str. fact:       1.41 MB

     Dynamical RAM for           local pot:       0.00 MB

     Dynamical RAM for          nlocal pot:     224.51 MB

     Dynamical RAM for                qrad:      19.12 MB

     Dynamical RAM for          rho,v,vnew:      16.89 MB

     Dynamical RAM for               rhoin:       5.63 MB

     Dynamical RAM for            rho*nmix:      22.58 MB

     Dynamical RAM for           G-vectors:       5.54 MB

     Dynamical RAM for          h,s,v(r/c):       5.27 MB

     Dynamical RAM for          <psi|beta>:      46.14 MB

     Dynamical RAM for                 psi:     419.08 MB

     Dynamical RAM for                hpsi:     419.08 MB

     Dynamical RAM for                spsi:     419.08 MB

     Dynamical RAM for      wfcinit/wfcrot:     298.68 MB

     Dynamical RAM for           addusdens:     544.66 MB

     Dynamical RAM for          addusforce:    1107.74 MB

     Dynamical RAM for         addusstress:     283.62 MB

     Estimated static dynamical RAM per process >     424.36 MB

     Estimated max dynamical RAM per process >       1.69 GB

     Estimated total dynamical RAM >     758.19 GB

     Initial potential from superposition of free atoms

     starting charge 2599.99167, renormalised to 2800.00000

     negative rho (up, down):  1.814E-01 0.000E+00
     Starting wfcs are 1800 atomic wfcs

     total cpu time spent up to now is      116.2 secs

     Self-consistent Calculation

     iteration #  1     ecut=    50.00 Ry     beta= 0.40
     Davidson diagonalization with overlap
     ethr =  1.00E-02,  avg # of iterations =  9.0

     negative rho (up, down):  2.092E+00 0.000E+00

     total cpu time spent up to now is      833.8 secs

     total energy              =  -31819.38997424 Ry
     Harris-Foulkes estimate   =  -31886.39067025 Ry
     estimated scf accuracy    <     279.52685282 Ry

     iteration #  2     ecut=    50.00 Ry     beta= 0.40
     Davidson diagonalization with overlap
     ethr =  9.98E-03,  avg # of iterations =  1.0

     negative rho (up, down):  7.333E+00 0.000E+00

     total cpu time spent up to now is     1126.1 secs

     total energy              =  -31745.79705110 Ry
     Harris-Foulkes estimate   =  -31825.42170655 Ry
     estimated scf accuracy    <     140.48481825 Ry

     iteration #  3     ecut=    50.00 Ry     beta= 0.40
     Davidson diagonalization with overlap
     ethr =  5.02E-03,  avg # of iterations =  3.0

     negative rho (up, down):  7.179E+00 0.000E+00

     total cpu time spent up to now is     1543.8 secs

     total energy              =  -31779.65316163 Ry
     Harris-Foulkes estimate   =  -31780.84640279 Ry
     estimated scf accuracy    <      18.10655374 Ry

     iteration #  4     ecut=    50.00 Ry     beta= 0.40
     Davidson diagonalization with overlap
     ethr =  6.47E-04,  avg # of iterations = 11.0

     negative rho (up, down):  7.602E+00 0.000E+00

     total cpu time spent up to now is     2015.3 secs

     total energy              =  -31780.74474815 Ry
     Harris-Foulkes estimate   =  -31780.22612306 Ry
     estimated scf accuracy    <      29.86630910 Ry

     iteration #  5     ecut=    50.00 Ry     beta= 0.40
     Davidson diagonalization with overlap
     ethr =  6.47E-04,  avg # of iterations =  4.0

     negative rho (up, down):  9.518E+00 0.000E+00

     total cpu time spent up to now is     2304.8 secs

     total energy              =  -31776.32431952 Ry
     Harris-Foulkes estimate   =  -31781.34551196 Ry
     estimated scf accuracy    <      96.31551245 Ry

     iteration #  6     ecut=    50.00 Ry     beta= 0.40
     Davidson diagonalization with overlap
     ethr =  6.47E-04,  avg # of iterations =  6.0

     negative rho (up, down):  1.004E+01 0.000E+00

     total cpu time spent up to now is     2559.4 secs

     total energy              =  -31778.09143563 Ry
     Harris-Foulkes estimate   =  -31778.35957580 Ry
     estimated scf accuracy    <       3.68661700 Ry

     iteration #  7     ecut=    50.00 Ry     beta= 0.40
     Davidson diagonalization with overlap
     ethr =  1.32E-04,  avg # of iterations = 12.0

     negative rho (up, down):  9.483E+00 0.000E+00

     total cpu time spent up to now is     2919.8 secs

     total energy              =  -31778.10714117 Ry
     Harris-Foulkes estimate   =  -31778.20021483 Ry
     estimated scf accuracy    <       1.69159217 Ry

     iteration #  8     ecut=    50.00 Ry     beta= 0.40
     Davidson diagonalization with overlap
     ethr =  6.04E-05,  avg # of iterations =  2.0

     negative rho (up, down):  7.662E+00 0.000E+00

     total cpu time spent up to now is     3159.0 secs

     total energy              =  -31777.85432298 Ry
     Harris-Foulkes estimate   =  -31778.13293436 Ry
     estimated scf accuracy    <       1.17178308 Ry

     iteration #  9     ecut=    50.00 Ry     beta= 0.40
     Davidson diagonalization with overlap
     ethr =  4.18E-05,  avg # of iterations = 14.0

     negative rho (up, down):  7.342E+00 0.000E+00

     total cpu time spent up to now is     3520.4 secs

     total energy              =  -31777.86744470 Ry
     Harris-Foulkes estimate   =  -31777.89553207 Ry
     estimated scf accuracy    <       0.45274291 Ry

     iteration # 10     ecut=    50.00 Ry     beta= 0.40
     Davidson diagonalization with overlap
     ethr =  1.62E-05,  avg # of iterations =  2.0

     negative rho (up, down):  4.701E+00 0.000E+00

     total cpu time spent up to now is     3732.4 secs

     total energy              =  -31777.75165774 Ry
     Harris-Foulkes estimate   =  -31777.86986300 Ry
     estimated scf accuracy    <       0.40870293 Ry

     iteration # 11     ecut=    50.00 Ry     beta= 0.40
     Davidson diagonalization with overlap
     ethr =  1.46E-05,  avg # of iterations = 18.0

     negative rho (up, down):  3.702E+00 0.000E+00

     total cpu time spent up to now is     4100.4 secs

     total energy              =  -31777.70738066 Ry
     Harris-Foulkes estimate   =  -31777.75622672 Ry
     estimated scf accuracy    <       0.26024546 Ry

     iteration # 12     ecut=    50.00 Ry     beta= 0.40
     Davidson diagonalization with overlap
     ethr =  9.29E-06,  avg # of iterations = 35.0

     negative rho (up, down):  2.441E+00 0.000E+00

     total cpu time spent up to now is     4546.7 secs

     total energy              =  -31777.62707419 Ry
     Harris-Foulkes estimate   =  -31777.70869154 Ry
     estimated scf accuracy    <       0.20907725 Ry

     iteration # 13     ecut=    50.00 Ry     beta= 0.40
     Davidson diagonalization with overlap
     ethr =  7.47E-06,  avg # of iterations = 23.0

     negative rho (up, down):  2.165E+00 0.000E+00

     total cpu time spent up to now is     5099.4 secs

     total energy              =  -31777.61892340 Ry
     Harris-Foulkes estimate   =  -31777.63067908 Ry
     estimated scf accuracy    <       0.11414741 Ry

     iteration # 14     ecut=    50.00 Ry     beta= 0.40
     Davidson diagonalization with overlap
     c_bands:  4 eigenvalues not converged
     ethr =  4.08E-06,  avg # of iterations = 20.0

     negative rho (up, down):  1.640E+00 0.000E+00

     total cpu time spent up to now is     5446.0 secs

     total energy              =  -31777.58358970 Ry
     Harris-Foulkes estimate   =  -31777.61902785 Ry
     estimated scf accuracy    <       0.10015121 Ry

     iteration # 15     ecut=    50.00 Ry     beta= 0.40
     Davidson diagonalization with overlap
     ethr =  3.58E-06,  avg # of iterations = 33.0

     negative rho (up, down):  1.435E+00 0.000E+00

     total cpu time spent up to now is     5989.8 secs

     total energy              =  -31777.56659794 Ry
     Harris-Foulkes estimate   =  -31777.58405346 Ry
     estimated scf accuracy    <       0.06540611 Ry

     iteration # 16     ecut=    50.00 Ry     beta= 0.40
     Davidson diagonalization with overlap
     ethr =  2.34E-06,  avg # of iterations = 29.0

     negative rho (up, down):  1.127E+00 0.000E+00

     total cpu time spent up to now is     6485.3 secs

     total energy              =  -31777.53167476 Ry
     Harris-Foulkes estimate   =  -31777.56706186 Ry
     estimated scf accuracy    <       0.04557671 Ry

     iteration # 17     ecut=    50.00 Ry     beta= 0.40
     Davidson diagonalization with overlap
     ethr =  1.63E-06,  avg # of iterations = 27.0

     negative rho (up, down):  8.305E-01 0.000E+00

     total cpu time spent up to now is     7024.8 secs

     total energy              =  -31777.52169293 Ry
     Harris-Foulkes estimate   =  -31777.53264589 Ry
     estimated scf accuracy    <       0.01873321 Ry

     iteration # 18     ecut=    50.00 Ry     beta= 0.40
     Davidson diagonalization with overlap
     c_bands:  4 eigenvalues not converged
     ethr =  6.69E-07,  avg # of iterations = 40.0

     negative rho (up, down):  7.236E-01 0.000E+00

     total cpu time spent up to now is     7627.5 secs

     total energy              =  -31777.52092851 Ry
     Harris-Foulkes estimate   =  -31777.52235823 Ry
     estimated scf accuracy    <       0.00888391 Ry

     iteration # 19     ecut=    50.00 Ry     beta= 0.40
     Davidson diagonalization with overlap
     c_bands:  3 eigenvalues not converged
     ethr =  3.17E-07,  avg # of iterations = 20.0

     negative rho (up, down):  4.353E-01 0.000E+00

     total cpu time spent up to now is     8014.9 secs

     total energy              =  -31777.51744451 Ry
     Harris-Foulkes estimate   =  -31777.52105854 Ry
     estimated scf accuracy    <       0.00654318 Ry

     iteration # 20     ecut=    50.00 Ry     beta= 0.40
     Davidson diagonalization with overlap
     c_bands:  1 eigenvalues not converged
     ethr =  2.34E-07,  avg # of iterations = 60.0

     negative rho (up, down):  2.774E-01 0.000E+00

     total cpu time spent up to now is     8740.2 secs

     total energy              =  -31777.51730496 Ry
     Harris-Foulkes estimate   =  -31777.51755701 Ry
     estimated scf accuracy    <       0.00203934 Ry

     iteration # 21     ecut=    50.00 Ry     beta= 0.40
     Davidson diagonalization with overlap
     ethr =  7.28E-08,  avg # of iterations = 33.0

     negative rho (up, down):  1.620E-01 0.000E+00

     total cpu time spent up to now is     9323.0 secs

     total energy              =  -31777.51713114 Ry
     Harris-Foulkes estimate   =  -31777.51732790 Ry
     estimated scf accuracy    <       0.00108287 Ry

     iteration # 22     ecut=    50.00 Ry     beta= 0.40
     Davidson diagonalization with overlap
     c_bands:  4 eigenvalues not converged
     ethr =  3.87E-08,  avg # of iterations = 20.0

     negative rho (up, down):  1.094E-01 0.000E+00

     total cpu time spent up to now is     9788.0 secs

     total energy              =  -31777.51707815 Ry
     Harris-Foulkes estimate   =  -31777.51717148 Ry
     estimated scf accuracy    <       0.00042502 Ry

     iteration # 23     ecut=    50.00 Ry     beta= 0.40
     Davidson diagonalization with overlap
     c_bands:  3 eigenvalues not converged
     ethr =  1.52E-08,  avg # of iterations = 20.0

     negative rho (up, down):  9.428E-02 0.000E+00

     total cpu time spent up to now is    10116.5 secs

     total energy              =  -31777.51713300 Ry
     Harris-Foulkes estimate   =  -31777.51709479 Ry
     estimated scf accuracy    <       0.00025983 Ry

     iteration # 24     ecut=    50.00 Ry     beta= 0.40
     Davidson diagonalization with overlap
     c_bands:  1 eigenvalues not converged
     ethr =  9.28E-09,  avg # of iterations = 20.0

     negative rho (up, down):  8.234E-02 0.000E+00

     total cpu time spent up to now is    10605.1 secs

     total energy              =  -31777.51713629 Ry
     Harris-Foulkes estimate   =  -31777.51713861 Ry
     estimated scf accuracy    <       0.00016324 Ry

     iteration # 25     ecut=    50.00 Ry     beta= 0.40
     Davidson diagonalization with overlap
     ethr =  5.83E-09,  avg # of iterations = 10.0

     negative rho (up, down):  6.020E-02 0.000E+00

     total cpu time spent up to now is    10936.2 secs

     total energy              =  -31777.51705538 Ry
     Harris-Foulkes estimate   =  -31777.51713884 Ry
     estimated scf accuracy    <       0.00008894 Ry

     iteration # 26     ecut=    50.00 Ry     beta= 0.40
     Davidson diagonalization with overlap
     ethr =  3.18E-09,  avg # of iterations = 18.0

     negative rho (up, down):  4.771E-02 0.000E+00

     total cpu time spent up to now is    11255.9 secs

     total energy              =  -31777.51705756 Ry
     Harris-Foulkes estimate   =  -31777.51705848 Ry
     estimated scf accuracy    <       0.00004027 Ry

     iteration # 27     ecut=    50.00 Ry     beta= 0.40
     Davidson diagonalization with overlap
     ethr =  1.44E-09,  avg # of iterations =  1.0

     negative rho (up, down):  4.227E-02 0.000E+00

     total cpu time spent up to now is    11690.6 secs

     total energy              =  -31777.51705518 Ry
     Harris-Foulkes estimate   =  -31777.51705936 Ry
     estimated scf accuracy    <       0.00002206 Ry

     iteration # 28     ecut=    50.00 Ry     beta= 0.40
     Davidson diagonalization with overlap
     ethr =  7.88E-10,  avg # of iterations =  2.0

     negative rho (up, down):  4.325E-02 0.000E+00

     total cpu time spent up to now is    12066.9 secs

     total energy              =  -31777.51705201 Ry
     Harris-Foulkes estimate   =  -31777.51705610 Ry
     estimated scf accuracy    <       0.00000520 Ry

     iteration # 29     ecut=    50.00 Ry     beta= 0.40
     Davidson diagonalization with overlap
     ethr =  1.86E-10,  avg # of iterations =  2.0

     negative rho (up, down):  4.272E-02 0.000E+00

     total cpu time spent up to now is    12477.8 secs

     total energy              =  -31777.51705166 Ry
     Harris-Foulkes estimate   =  -31777.51705215 Ry
     estimated scf accuracy    <       0.00000241 Ry

     iteration # 30     ecut=    50.00 Ry     beta= 0.40
     Davidson diagonalization with overlap
     ethr =  8.60E-11,  avg # of iterations =  2.0

     negative rho (up, down):  4.234E-02 0.000E+00

     total cpu time spent up to now is    13002.8 secs

     total energy              =  -31777.51705245 Ry
     Harris-Foulkes estimate   =  -31777.51705181 Ry
     estimated scf accuracy    <       0.00000048 Ry

     iteration # 31     ecut=    50.00 Ry     beta= 0.40
     Davidson diagonalization with overlap
     ethr =  1.72E-11,  avg # of iterations =  2.0

     negative rho (up, down):  4.218E-02 0.000E+00

     total cpu time spent up to now is    13306.1 secs

     total energy              =  -31777.51705258 Ry
     Harris-Foulkes estimate   =  -31777.51705247 Ry
     estimated scf accuracy    <       0.00000029 Ry

     iteration # 32     ecut=    50.00 Ry     beta= 0.40
     Davidson diagonalization with overlap
     ethr =  1.05E-11,  avg # of iterations =  2.0

     negative rho (up, down):  4.214E-02 0.000E+00

     total cpu time spent up to now is    13639.4 secs

     total energy              =  -31777.51705261 Ry
     Harris-Foulkes estimate   =  -31777.51705259 Ry
     estimated scf accuracy    <       0.00000012 Ry

     iteration # 33     ecut=    50.00 Ry     beta= 0.40
     Davidson diagonalization with overlap
     ethr =  4.21E-12,  avg # of iterations =  2.0

     negative rho (up, down):  4.203E-02 0.000E+00

     total cpu time spent up to now is    14082.0 secs

     total energy              =  -31777.51705264 Ry
     Harris-Foulkes estimate   =  -31777.51705262 Ry
     estimated scf accuracy    <       0.00000004 Ry

     iteration # 34     ecut=    50.00 Ry     beta= 0.40
     Davidson diagonalization with overlap
     ethr =  1.59E-12,  avg # of iterations =  3.0

     negative rho (up, down):  4.203E-02 0.000E+00

     total cpu time spent up to now is    14275.3 secs

     End of self-consistent calculation

          k = 0.0000 0.0000 0.0000 (****** PWs)   bands (ev):

   -24.9194 -24.9041 -24.9020 -24.8977 -24.8906 -24.8733 -24.8628 -24.8440
   -24.8391 -24.8379 -24.8327 -24.8261 -24.8213 -24.8188 -24.8183 -24.8171
   -24.8166 -24.8145 -24.8142 -24.8118 -24.8082 -24.8043 -24.8041 -24.8038
   -24.8033 -24.8028 -24.8022 -24.7977 -24.7917 -24.7907 -24.7881 -24.7876
   -24.7853 -24.7849 -24.7840 -24.7825 -24.7812 -24.7801 -24.7779 -24.7776
   -24.7773 -24.7755 -24.7732 -24.7720 -24.7709 -24.7704 -24.7696 -24.7680
   -24.7674 -24.7645 -24.7609 -24.7575 -24.7556 -24.7554 -24.7551 -24.7541
   -24.7540 -24.7538 -24.7531 -24.7526 -24.7517 -24.7502 -24.7500 -24.7489
   -24.7486 -24.7458 -24.7453 -24.7450 -24.7436 -24.7428 -24.7420 -24.7416
   -24.7401 -24.7396 -24.7392 -24.7378 -24.7375 -24.7369 -24.7360 -24.7355
   -24.7351 -24.7347 -24.7345 -24.7339 -24.7331 -24.7330 -24.7319 -24.7313
   -24.7303 -24.7297 -24.7290 -24.7283 -24.7280 -24.7273 -24.7262 -24.7257
   -24.7252 -24.7250 -24.7244 -24.7235 -24.7231 -24.7229 -24.7222 -24.7215
   -24.7211 -24.7205 -24.7200 -24.7197 -24.7185 -24.7181 -24.7177 -24.7169
   -24.7157 -24.7156 -24.7149 -24.7138 -24.7132 -24.7131 -24.7127 -24.7126
   -24.7118 -24.7108 -24.7104 -24.7099 -24.7095 -24.7088 -24.7083 -24.7075
   -24.7070 -24.7066 -24.7061 -24.7058 -24.7051 -24.7047 -24.7042 -24.7037
   -24.7030 -24.7024 -24.7023 -24.7018 -24.7011 -24.7010 -24.7008 -24.7005
   -24.6998 -24.6993 -24.6990 -24.6985 -24.6981 -24.6979 -24.6976 -24.6968
   -24.6967 -24.6962 -24.6958 -24.6954 -24.6945 -24.6942 -24.6940 -24.6938
   -24.6933 -24.6926 -24.6923 -24.6917 -24.6913 -24.6909 -24.6909 -24.6900
   -24.6899 -24.6891 -24.6883 -24.6877 -24.6876 -24.6871 -24.6868 -24.6865
   -24.6864 -24.6859 -24.6855 -24.6853 -24.6850 -24.6844 -24.6838 -24.6838
   -24.6834 -24.6833 -24.6826 -24.6820 -24.6817 -24.6814 -24.6809 -24.6805
   -24.6804 -24.6799 -24.6794 -24.6792 -24.6787 -24.6785 -24.6777 -24.6775
   -24.6769 -24.6766 -24.6762 -24.6755 -24.6752 -24.6747 -24.6742 -24.6737
   -24.6734 -24.6728 -24.6723 -24.6720 -24.6717 -24.6713 -24.6707 -24.6705
   -24.6700 -24.6695 -24.6690 -24.6685 -24.6681 -24.6679 -24.6676 -24.6670
   -24.6665 -24.6664 -24.6660 -24.6657 -24.6653 -24.6649 -24.6646 -24.6642
   -24.6636 -24.6633 -24.6631 -24.6628 -24.6623 -24.6616 -24.6613 -24.6610
   -24.6609 -24.6604 -24.6596 -24.6593 -24.6588 -24.6587 -24.6583 -24.6578
   -24.6572 -24.6568 -24.6568 -24.6562 -24.6560 -24.6552 -24.6549 -24.6548
   -24.6542 -24.6535 -24.6533 -24.6532 -24.6527 -24.6521 -24.6520 -24.6516
   -24.6510 -24.6503 -24.6498 -24.6492 -24.6491 -24.6487 -24.6486 -24.6482
   -24.6476 -24.6469 -24.6466 -24.6462 -24.6459 -24.6456 -24.6454 -24.6448
   -24.6448 -24.6441 -24.6437 -24.6433 -24.6432 -24.6428 -24.6423 -24.6416
   -24.6412 -24.6408 -24.6407 -24.6404 -24.6402 -24.6398 -24.6396 -24.6391
   -24.6387 -24.6382 -24.6380 -24.6375 -24.6369 -24.6367 -24.6361 -24.6359
   -24.6354 -24.6350 -24.6345 -24.6343 -24.6342 -24.6338 -24.6336 -24.6327
   -24.6325 -24.6320 -24.6320 -24.6315 -24.6311 -24.6310 -24.6306 -24.6296
   -24.6292 -24.6292 -24.6290 -24.6285 -24.6283 -24.6280 -24.6267 -24.6264
   -24.6262 -24.6257 -24.6257 -24.6251 -24.6248 -24.6246 -24.6240 -24.6239
   -24.6234 -24.6231 -24.6228 -24.6225 -24.6221 -24.6220 -24.6216 -24.6210
   -24.6204 -24.6202 -24.6202 -24.6197 -24.6191 -24.6187 -24.6183 -24.6179
   -24.6177 -24.6173 -24.6169 -24.6166 -24.6162 -24.6161 -24.6156 -24.6151
   -24.6149 -24.6143 -24.6137 -24.6135 -24.6135 -24.6130 -24.6127 -24.6125
   -24.6119 -24.6117 -24.6115 -24.6110 -24.6106 -24.6103 -24.6097 -24.6096
   -24.6090 -24.6089 -24.6088 -24.6083 -24.6079 -24.6076 -24.6071 -24.6065
   -24.6060 -24.6055 -24.6053 -24.6052 -24.6051 -24.6046 -24.6045 -24.6039
   -24.6036 -24.6034 -24.6028 -24.6024 -24.6021 -24.6019 -24.6016 -24.6014
   -24.6007 -24.6003 -24.6002 -24.5999 -24.5996 -24.5990 -24.5988 -24.5983
   -24.5981 -24.5977 -24.5975 -24.5970 -24.5968 -24.5962 -24.5960 -24.5955
   -24.5954 -24.5952 -24.5948 -24.5948 -24.5942 -24.5937 -24.5932 -24.5931
   -24.5929 -24.5925 -24.5919 -24.5916 -24.5914 -24.5911 -24.5908 -24.5905
   -24.5899 -24.5897 -24.5894 -24.5889 -24.5885 -24.5879 -24.5879 -24.5874
   -24.5871 -24.5867 -24.5863 -24.5856 -24.5852 -24.5849 -24.5848 -24.5845
   -24.5842 -24.5839 -24.5831 -24.5828 -24.5826 -24.5820 -24.5817 -24.5815
   -24.5814 -24.5810 -24.5807 -24.5801 -24.5798 -24.5793 -24.5789 -24.5785
   -24.5780 -24.5776 -24.5773 -24.5769 -24.5768 -24.5758 -24.5757 -24.5753
   -24.5750 -24.5747 -24.5744 -24.5741 -24.5737 -24.5734 -24.5729 -24.5729
   -24.5727 -24.5722 -24.5720 -24.5715 -24.5713 -24.5713 -24.5705 -24.5703
   -24.5699 -24.5695 -24.5692 -24.5690 -24.5686 -24.5685 -24.5678 -24.5674
   -24.5671 -24.5668 -24.5663 -24.5660 -24.5659 -24.5656 -24.5651 -24.5645
   -24.5638 -24.5636 -24.5632 -24.5628 -24.5626 -24.5620 -24.5618 -24.5616
   -24.5611 -24.5608 -24.5606 -24.5601 -24.5598 -24.5594 -24.5591 -24.5583
   -24.5582 -24.5580 -24.5574 -24.5572 -24.5570 -24.5567 -24.5564 -24.5558
   -24.5555 -24.5547 -24.5544 -24.5543 -24.5538 -24.5536 -24.5530 -24.5528
   -24.5524 -24.5520 -24.5519 -24.5518 -24.5510 -24.5508 -24.5500 -24.5498
   -24.5495 -24.5490 -24.5488 -24.5484 -24.5483 -24.5481 -24.5476 -24.5472
   -24.5469 -24.5465 -24.5461 -24.5458 -24.5456 -24.5449 -24.5447 -24.5444
   -24.5440 -24.5435 -24.5433 -24.5425 -24.5422 -24.5417 -24.5415 -24.5413
   -24.5410 -24.5407 -24.5402 -24.5401 -24.5393 -24.5392 -24.5390 -24.5388
   -24.5386 -24.5381 -24.5377 -24.5372 -24.5369 -24.5364 -24.5360 -24.5354
   -24.5352 -24.5349 -24.5341 -24.5339 -24.5334 -24.5329 -24.5323 -24.5322
   -24.5317 -24.5313 -24.5310 -24.5308 -24.5305 -24.5304 -24.5300 -24.5295
   -24.5292 -24.5285 -24.5281 -24.5281 -24.5274 -24.5271 -24.5265 -24.5263
   -24.5258 -24.5257 -24.5253 -24.5249 -24.5243 -24.5242 -24.5239 -24.5234
   -24.5228 -24.5227 -24.5223 -24.5221 -24.5218 -24.5211 -24.5209 -24.5206
   -24.5204 -24.5200 -24.5193 -24.5189 -24.5188 -24.5187 -24.5184 -24.5179
   -24.5171 -24.5169 -24.5163 -24.5161 -24.5159 -24.5156 -24.5154 -24.5151
   -24.5145 -24.5141 -24.5138 -24.5134 -24.5132 -24.5130 -24.5124 -24.5122
   -24.5120 -24.5115 -24.5112 -24.5101 -24.5100 -24.5095 -24.5093 -24.5088
   -24.5085 -24.5081 -24.5079 -24.5071 -24.5069 -24.5061 -24.5060 -24.5055
   -24.5050 -24.5047 -24.5045 -24.5043 -24.5035 -24.5034 -24.5031 -24.5026
   -24.5021 -24.5021 -24.5016 -24.5009 -24.5006 -24.5001 -24.4998 -24.4995
   -24.4987 -24.4983 -24.4979 -24.4979 -24.4971 -24.4969 -24.4968 -24.4961
   -24.4950 -24.4947 -24.4944 -24.4942 -24.4940 -24.4935 -24.4934 -24.4932
   -24.4921 -24.4917 -24.4916 -24.4910 -24.4905 -24.4901 -24.4900 -24.4897
   -24.4891 -24.4888 -24.4882 -24.4878 -24.4872 -24.4869 -24.4863 -24.4861
   -24.4857 -24.4855 -24.4852 -24.4848 -24.4844 -24.4839 -24.4835 -24.4823
   -24.4819 -24.4816 -24.4814 -24.4808 -24.4806 -24.4806 -24.4803 -24.4797
   -24.4796 -24.4795 -24.4787 -24.4784 -24.4779 -24.4773 -24.4772 -24.4769
   -24.4764 -24.4761 -24.4756 -24.4751 -24.4750 -24.4747 -24.4743 -24.4739
   -24.4737 -24.4730 -24.4726 -24.4722 -24.4720 -24.4714 -24.4711 -24.4708
   -24.4701 -24.4698 -24.4697 -24.4695 -24.4692 -24.4687 -24.4683 -24.4681
   -24.4674 -24.4672 -24.4666 -24.4663 -24.4659 -24.4652 -24.4650 -24.4648
   -24.4642 -24.4636 -24.4635 -24.4633 -24.4626 -24.4622 -24.4621 -24.4616
   -24.4614 -24.4612 -24.4602 -24.4595 -24.4592 -24.4586 -24.4584 -24.4579
   -24.4574 -24.4571 -24.4563 -24.4558 -24.4554 -24.4552 -24.4545 -24.4541
   -24.4535 -24.4532 -24.4530 -24.4526 -24.4521 -24.4513 -24.4502 -24.4495
   -24.4494 -24.4491 -24.4485 -24.4483 -24.4480 -24.4475 -24.4472 -24.4471
   -24.4468 -24.4459 -24.4454 -24.4449 -24.4440 -24.4436 -24.4430 -24.4429
   -24.4424 -24.4419 -24.4415 -24.4413 -24.4412 -24.4403 -24.4399 -24.4396
   -24.4391 -24.4387 -24.4381 -24.4377 -24.4371 -24.4367 -24.4366 -24.4361
   -24.4358 -24.4354 -24.4347 -24.4342 -24.4339 -24.4336 -24.4330 -24.4323
   -24.4322 -24.4319 -24.4314 -24.4312 -24.4302 -24.4299 -24.4294 -24.4291
   -24.4284 -24.4281 -24.4275 -24.4266 -24.4264 -24.4262 -24.4256 -24.4254
   -24.4248 -24.4240 -24.4233 -24.4229 -24.4223 -24.4218 -24.4215 -24.4209
   -24.4202 -24.4199 -24.4197 -24.4196 -24.4185 -24.4183 -24.4178 -24.4176
   -24.4169 -24.4166 -24.4163 -24.4152 -24.4146 -24.4139 -24.4136 -24.4133
   -24.4130 -24.4124 -24.4119 -24.4116 -24.4111 -24.4099 -24.4093 -24.4081
   -24.4074 -24.4068 -24.4061 -24.4058 -24.4054 -24.4052 -24.4045 -24.4031
   -24.4030 -24.4027 -24.4026 -24.4019 -24.4010 -24.4006 -24.3999 -24.3992
   -24.3986 -24.3984 -24.3963 -24.3956 -24.3955 -24.3951 -24.3946 -24.3944
   -24.3935 -24.3928 -24.3916 -24.3913 -24.3904 -24.3894 -24.3889 -24.3887
   -24.3882 -24.3874 -24.3869 -24.3866 -24.3860 -24.3858 -24.3852 -24.3843
   -24.3839 -24.3833 -24.3828 -24.3825 -24.3803 -24.3793 -24.3791 -24.3790
   -24.3783 -24.3779 -24.3775 -24.3760 -24.3753 -24.3741 -24.3733 -24.3721
   -24.3710 -24.3706 -24.3696 -24.3692 -24.3683 -24.3672 -24.3660 -24.3659
   -24.3649 -24.3627 -24.3607 -24.3602 -24.3590 -24.3588 -24.3572 -24.3566
   -24.3551 -24.3528 -24.3526 -24.3509 -24.3492 -24.3489 -24.3475 -24.3469
   -24.3457 -24.3446 -24.3432 -24.3412 -24.3386 -24.3380 -24.3367 -24.3357
   -24.3335 -24.3326 -24.3319 -24.3315 -24.3266 -24.3236 -24.3234 -24.3207
   -24.3202 -24.3135 -24.3129 -24.3095 -24.3085 -24.3033 -24.3003 -24.2994
   -24.2978 -24.2962 -24.2907 -24.2808 -24.2803 -24.2573 -24.2491 -24.2377
   -13.9170 -13.7449 -13.6337 -13.6155 -13.5881 -13.4288 -13.4089 -13.3653
   -13.2388 -13.2236 -13.2054 -13.1646 -13.0540 -13.0143 -13.0052 -12.9315
   -12.9105 -12.8361 -12.8196 -12.7617 -12.7456 -12.6639 -12.6222 -12.5682
   -12.4939 -12.4618 -12.4433 -12.4304 -12.3837 -12.3638 -12.3494 -12.2886
   -12.2120 -12.1733 -12.1437 -12.1083 -12.0489 -12.0380 -12.0060 -11.9885
   -11.9473 -11.9211 -11.8436 -11.8296 -11.8126 -11.7450 -11.7321 -11.6596
   -11.6526 -11.6397 -11.5857 -11.5591 -11.4961 -11.4658 -11.4488 -11.3915
   -11.3863 -11.3370 -11.3182 -11.2842 -11.2485 -11.2142 -11.1690 -11.1507
   -11.1081 -11.0931 -11.0240 -11.0066 -10.9785 -10.9662 -10.9244 -10.9136
   -10.9019 -10.8423 -10.8279 -10.8226 -10.7935 -10.7505 -10.7197 -10.6972
   -10.6695 -10.6253 -10.5916 -10.5667 -10.5583 -10.5235 -10.4674 -10.4545
   -10.4473 -10.4217 -10.3687 -10.3468 -10.3278 -10.3256 -10.2844 -10.2602
   -10.2373 -10.1981 -10.1860 -10.1688 -10.1188 -10.0992 -10.0801 -10.0510
   -10.0236  -9.9983  -9.9864  -9.9460  -9.9262  -9.8989  -9.8721  -9.8380
    -9.8008  -9.7590  -9.7463  -9.7262  -9.7130  -9.6657  -9.6338  -9.6287
    -9.6041  -9.5765  -9.5584  -9.5334  -9.5155  -9.4717  -9.4641  -9.4393
    -9.4055  -9.3928  -9.3581  -9.3299  -9.3071  -9.2973  -9.2864  -9.2618
    -9.2448  -9.1912  -9.1714  -9.1428  -9.1216  -9.1071  -9.1029  -9.0749
    -9.0661  -9.0499  -9.0189  -8.9732  -8.9533  -8.9320  -8.8886  -8.8629
    -8.8536  -8.8438  -8.8078  -8.7892  -8.7804  -8.7458  -8.7246  -8.7089
    -8.6485  -8.6319  -8.6241  -8.5905  -8.5858  -8.5533  -8.5315  -8.5007
    -8.4902  -8.4509  -8.4289  -8.4103  -8.3816  -8.3531  -8.3352  -8.2792
    -8.2650  -8.2489  -8.2182  -8.2039  -8.1697  -8.1486  -8.0872  -8.0858
    -8.0557  -7.9974  -7.9910  -7.9374  -7.8936  -7.8877  -7.8441  -7.8367
    -7.8129  -7.7894  -7.7739  -7.7355  -7.6589  -7.6385  -7.5924  -7.4813
    -6.6514  -6.6182  -6.5860  -6.5326  -6.4808  -6.4583  -6.4286  -6.4090
    -6.3828  -6.3806  -6.3597  -6.3242  -6.2966  -6.2609  -6.2549  -6.2368
    -6.2109  -6.2000  -6.1741  -6.1589  -6.1299  -6.1189  -6.1152  -6.0980
    -6.0806  -6.0643  -6.0363  -6.0268  -6.0011  -5.9794  -5.9495  -5.9458
    -5.9291  -5.9092  -5.8957  -5.8779  -5.8619  -5.8495  -5.8254  -5.8176
    -5.8067  -5.7945  -5.7738  -5.7595  -5.7442  -5.7121  -5.7024  -5.6847
    -5.6573  -5.6425  -5.6388  -5.6287  -5.6159  -5.6009  -5.5820  -5.5557
    -5.5414  -5.5268  -5.5225  -5.4934  -5.4777  -5.4606  -5.4538  -5.4289
    -5.4275  -5.3678  -5.3666  -5.3498  -5.3369  -5.3262  -5.3065  -5.3003
    -5.2854  -5.2595  -5.2545  -5.2432  -5.2248  -5.1899  -5.1797  -5.1660
    -5.1519  -5.1278  -5.1191  -5.0994  -5.0789  -5.0554  -5.0362  -5.0246
    -5.0012  -4.9939  -4.9709  -4.9534  -4.9413  -4.9168  -4.8937  -4.8896
    -4.8761  -4.8530  -4.8436  -4.8189  -4.8115  -4.7951  -4.7770  -4.7672
    -4.7556  -4.7407  -4.7206  -4.7124  -4.6976  -4.6723  -4.6667  -4.6384
    -4.6235  -4.6149  -4.5991  -4.5776  -4.5514  -4.5427  -4.5221  -4.5096
    -4.5049  -4.4860  -4.4680  -4.4469  -4.4252  -4.4180  -4.4012  -4.3647
    -4.3598  -4.3414  -4.3380  -4.3219  -4.3075  -4.2876  -4.2714  -4.2582
    -4.2385  -4.2295  -4.2186  -4.1998  -4.1852  -4.1517  -4.1485  -4.1265
    -4.0952  -4.0815  -4.0661  -4.0477  -4.0338  -4.0123  -4.0014  -3.9927
    -3.9756  -3.9679  -3.9639  -3.9554  -3.9246  -3.9172  -3.9024  -3.8736
    -3.8655  -3.8593  -3.8295  -3.8041  -3.7999  -3.7742  -3.7554  -3.7427
    -3.7303  -3.7212  -3.6754  -3.6700  -3.6668  -3.6568  -3.6343  -3.6155
    -3.5894  -3.5682  -3.5636  -3.5546  -3.5351  -3.5119  -3.4864  -3.4749
    -3.4676  -3.4397  -3.4242  -3.4149  -3.3897  -3.3836  -3.3653  -3.3392
    -3.3243  -3.3185  -3.3042  -3.2900  -3.2862  -3.2521  -3.2445  -3.2305
    -3.2108  -3.1845  -3.1662  -3.1452  -3.1398  -3.1310  -3.1251  -3.0949
    -3.0919  -3.0671  -3.0488  -3.0376  -3.0115  -2.9906  -2.9812  -2.9738
    -2.9522  -2.9294  -2.9114  -2.9036  -2.8865  -2.8673  -2.8536  -2.8360
    -2.8222  -2.7898  -2.7778  -2.7726  -2.7504  -2.7462  -2.7244  -2.7160
    -2.7033  -2.6857  -2.6718  -2.6686  -2.6269  -2.6196  -2.5885  -2.5811
    -2.5652  -2.5489  -2.5318  -2.5201  -2.5079  -2.4804  -2.4717  -2.4688
    -2.4514  -2.4397  -2.4257  -2.3970  -2.3860  -2.3750  -2.3560  -2.3512
    -2.3363  -2.3174  -2.2900  -2.2862  -2.2773  -2.2551  -2.2389  -2.2115
    -2.1986  -2.1876  -2.1735  -2.1595  -2.1357  -2.1235  -2.1108  -2.0963
    -2.0730  -2.0632  -2.0364  -2.0283  -2.0155  -1.9910  -1.9750  -1.9560
    -1.9510  -1.9473  -1.9316  -1.9076  -1.9040  -1.8906  -1.8749  -1.8684
    -1.8602  -1.8396  -1.8131  -1.7938  -1.7931  -1.7603  -1.7529  -1.7331
    -1.7241  -1.7149  -1.6970  -1.6790  -1.6562  -1.6350  -1.6279  -1.6156
    -1.6029  -1.5820  -1.5680  -1.5518  -1.5411  -1.5276  -1.4901  -1.4803
    -1.4641  -1.4506  -1.4388  -1.4322  -1.4223  -1.4148  -1.3912  -1.3839
    -1.3733  -1.3556  -1.3412  -1.3227  -1.3009  -1.2931  -1.2804  -1.2684
    -1.2430  -1.2340  -1.2176  -1.1909  -1.1849  -1.1752  -1.1675  -1.1394
    -1.1252  -1.1173  -1.0914  -1.0696  -1.0548  -1.0466  -1.0359  -1.0292
    -1.0037  -1.0027  -0.9807  -0.9635  -0.9471  -0.9383  -0.9244  -0.9093
    -0.9040  -0.8951  -0.8814  -0.8535  -0.8436  -0.8418  -0.8286  -0.8127
    -0.7881  -0.7619  -0.7577  -0.7339  -0.7185  -0.7087  -0.6873  -0.6804
    -0.6742  -0.6514  -0.6319  -0.6154  -0.6005  -0.5952  -0.5874  -0.5803
    -0.5717  -0.5607  -0.5355  -0.5236  -0.5119  -0.5056  -0.4881  -0.4724
    -0.4642  -0.4586  -0.4505  -0.4440  -0.4218  -0.4011  -0.3911  -0.3855
    -0.3736  -0.3432  -0.3407  -0.3256  -0.2992  -0.2972  -0.2812  -0.2766
    -0.2542  -0.2408  -0.2265  -0.2241  -0.1829  -0.1713  -0.1534  -0.1394
    -0.1298  -0.1113  -0.0928  -0.0847  -0.0702  -0.0598  -0.0409  -0.0343
    -0.0097   0.0053   0.0239   0.0257   0.0341   0.0386   0.0562   0.0658
     0.0860   0.0930   0.1188   0.1226   0.1378   0.1529   0.1684   0.1930
     0.1961   0.2092   0.2145   0.2263   0.2306   0.2458   0.2517   0.2754
     0.2885   0.2987   0.3071   0.3248   0.3418   0.3529   0.3666   0.3749
     0.3953   0.3986   0.4045   0.4114   0.4261   0.4342   0.4486   0.4596
     0.4738   0.4775   0.4964   0.5039   0.5214   0.5245   0.5285   0.5422
     0.5498   0.5563   0.5705   0.5729   0.5749   0.5863   0.5925   0.6100
     0.6135   0.6157   0.6244   0.6282   0.6372   0.6434   0.6480   0.6598

     occupation numbers 
     1.0000   1.0000   1.0000   1.0000   1.0000   1.0000   1.0000   1.0000
     1.0000   1.0000   1.0000   1.0000   1.0000   1.0000   1.0000   1.0000
     1.0000   1.0000   1.0000   1.0000   1.0000   1.0000   1.0000   1.0000
     1.0000   1.0000   1.0000   1.0000   1.0000   1.0000   1.0000   1.0000
     1.0000   1.0000   1.0000   1.0000   1.0000   1.0000   1.0000   1.0000
     1.0000   1.0000   1.0000   1.0000   1.0000   1.0000   1.0000   1.0000
     1.0000   1.0000   1.0000   1.0000   1.0000   1.0000   1.0000   1.0000
     1.0000   1.0000   1.0000   1.0000   1.0000   1.0000   1.0000   1.0000
     1.0000   1.0000   1.0000   1.0000   1.0000   1.0000   1.0000   1.0000
     1.0000   1.0000   1.0000   1.0000   1.0000   1.0000   1.0000   1.0000
     1.0000   1.0000   1.0000   1.0000   1.0000   1.0000   1.0000   1.0000
     1.0000   1.0000   1.0000   1.0000   1.0000   1.0000   1.0000   1.0000
     1.0000   1.0000   1.0000   1.0000   1.0000   1.0000   1.0000   1.0000
     1.0000   1.0000   1.0000   1.0000   1.0000   1.0000   1.0000   1.0000
     1.0000   1.0000   1.0000   1.0000   1.0000   1.0000   1.0000   1.0000
     1.0000   1.0000   1.0000   1.0000   1.0000   1.0000   1.0000   1.0000
     1.0000   1.0000   1.0000   1.0000   1.0000   1.0000   1.0000   1.0000
     1.0000   1.0000   1.0000   1.0000   1.0000   1.0000   1.0000   1.0000
     1.0000   1.0000   1.0000   1.0000   1.0000   1.0000   1.0000   1.0000
     1.0000   1.0000   1.0000   1.0000   1.0000   1.0000   1.0000   1.0000
     1.0000   1.0000   1.0000   1.0000   1.0000   1.0000   1.0000   1.0000
     1.0000   1.0000   1.0000   1.0000   1.0000   1.0000   1.0000   1.0000
     1.0000   1.0000   1.0000   1.0000   1.0000   1.0000   1.0000   1.0000
     1.0000   1.0000   1.0000   1.0000   1.0000   1.0000   1.0000   1.0000
     1.0000   1.0000   1.0000   1.0000   1.0000   1.0000   1.0000   1.0000
     1.0000   1.0000   1.0000   1.0000   1.0000   1.0000   1.0000   1.0000
     1.0000   1.0000   1.0000   1.0000   1.0000   1.0000   1.0000   1.0000
     1.0000   1.0000   1.0000   1.0000   1.0000   1.0000   1.0000   1.0000
     1.0000   1.0000   1.0000   1.0000   1.0000   1.0000   1.0000   1.0000
     1.0000   1.0000   1.0000   1.0000   1.0000   1.0000   1.0000   1.0000
     1.0000   1.0000   1.0000   1.0000   1.0000   1.0000   1.0000   1.0000
     1.0000   1.0000   1.0000   1.0000   1.0000   1.0000   1.0000   1.0000
     1.0000   1.0000   1.0000   1.0000   1.0000   1.0000   1.0000   1.0000
     1.0000   1.0000   1.0000   1.0000   1.0000   1.0000   1.0000   1.0000
     1.0000   1.0000   1.0000   1.0000   1.0000   1.0000   1.0000   1.0000
     1.0000   1.0000   1.0000   1.0000   1.0000   1.0000   1.0000   1.0000
     1.0000   1.0000   1.0000   1.0000   1.0000   1.0000   1.0000   1.0000
     1.0000   1.0000   1.0000   1.0000   1.0000   1.0000   1.0000   1.0000
     1.0000   1.0000   1.0000   1.0000   1.0000   1.0000   1.0000   1.0000
     1.0000   1.0000   1.0000   1.0000   1.0000   1.0000   1.0000   1.0000
     1.0000   1.0000   1.0000   1.0000   1.0000   1.0000   1.0000   1.0000
     1.0000   1.0000   1.0000   1.0000   1.0000   1.0000   1.0000   1.0000
     1.0000   1.0000   1.0000   1.0000   1.0000   1.0000   1.0000   1.0000
     1.0000   1.0000   1.0000   1.0000   1.0000   1.0000   1.0000   1.0000
     1.0000   1.0000   1.0000   1.0000   1.0000   1.0000   1.0000   1.0000
     1.0000   1.0000   1.0000   1.0000   1.0000   1.0000   1.0000   1.0000
     1.0000   1.0000   1.0000   1.0000   1.0000   1.0000   1.0000   1.0000
     1.0000   1.0000   1.0000   1.0000   1.0000   1.0000   1.0000   1.0000
     1.0000   1.0000   1.0000   1.0000   1.0000   1.0000   1.0000   1.0000
     1.0000   1.0000   1.0000   1.0000   1.0000   1.0000   1.0000   1.0000
     1.0000   1.0000   1.0000   1.0000   1.0000   1.0000   1.0000   1.0000
     1.0000   1.0000   1.0000   1.0000   1.0000   1.0000   1.0000   1.0000
     1.0000   1.0000   1.0000   1.0000   1.0000   1.0000   1.0000   1.0000
     1.0000   1.0000   1.0000   1.0000   1.0000   1.0000   1.0000   1.0000
     1.0000   1.0000   1.0000   1.0000   1.0000   1.0000   1.0000   1.0000
     1.0000   1.0000   1.0000   1.0000   1.0000   1.0000   1.0000   1.0000
     1.0000   1.0000   1.0000   1.0000   1.0000   1.0000   1.0000   1.0000
     1.0000   1.0000   1.0000   1.0000   1.0000   1.0000   1.0000   1.0000
     1.0000   1.0000   1.0000   1.0000   1.0000   1.0000   1.0000   1.0000
     1.0000   1.0000   1.0000   1.0000   1.0000   1.0000   1.0000   1.0000
     1.0000   1.0000   1.0000   1.0000   1.0000   1.0000   1.0000   1.0000
     1.0000   1.0000   1.0000   1.0000   1.0000   1.0000   1.0000   1.0000
     1.0000   1.0000   1.0000   1.0000   1.0000   1.0000   1.0000   1.0000
     1.0000   1.0000   1.0000   1.0000   1.0000   1.0000   1.0000   1.0000
     1.0000   1.0000   1.0000   1.0000   1.0000   1.0000   1.0000   1.0000
     1.0000   1.0000   1.0000   1.0000   1.0000   1.0000   1.0000   1.0000
     1.0000   1.0000   1.0000   1.0000   1.0000   1.0000   1.0000   1.0000
     1.0000   1.0000   1.0000   1.0000   1.0000   1.0000   1.0000   1.0000
     1.0000   1.0000   1.0000   1.0000   1.0000   1.0000   1.0000   1.0000
     1.0000   1.0000   1.0000   1.0000   1.0000   1.0000   1.0000   1.0000
     1.0000   1.0000   1.0000   1.0000   1.0000   1.0000   1.0000   1.0000
     1.0000   1.0000   1.0000   1.0000   1.0000   1.0000   1.0000   1.0000
     1.0000   1.0000   1.0000   1.0000   1.0000   1.0000   1.0000   1.0000
     1.0000   1.0000   1.0000   1.0000   1.0000   1.0000   1.0000   1.0000
     1.0000   1.0000   1.0000   1.0000   1.0000   1.0000   1.0000   1.0000
     1.0000   1.0000   1.0000   1.0000   1.0000   1.0000   1.0000   1.0000
     1.0000   1.0000   1.0000   1.0000   1.0000   1.0000   1.0000   1.0000
     1.0000   1.0000   1.0000   1.0000   1.0000   1.0000   1.0000   1.0000
     1.0000   1.0000   1.0000   1.0000   1.0000   1.0000   1.0000   1.0000
     1.0000   1.0000   1.0000   1.0000   1.0000   1.0000   1.0000   1.0000
     1.0000   1.0000   1.0000   1.0000   1.0000   1.0000   1.0000   1.0000
     1.0000   1.0000   1.0000   1.0000   1.0000   1.0000   1.0000   1.0000
     1.0000   1.0000   1.0000   1.0000   1.0000   1.0000   1.0000   1.0000
     1.0000   1.0000   1.0000   1.0000   1.0000   1.0000   1.0000   1.0000
     1.0000   1.0000   1.0000   1.0000   1.0000   1.0000   1.0000   1.0000
     1.0000   1.0000   1.0000   1.0000   1.0000   1.0000   1.0000   1.0000
     1.0000   1.0000   1.0000   1.0000   1.0000   1.0000   1.0000   1.0000
     1.0000   1.0000   1.0000   1.0000   1.0000   1.0000   1.0000   1.0000
     1.0000   1.0000   1.0000   1.0000   1.0000   1.0000   1.0000   1.0000
     1.0000   1.0000   1.0000   1.0000   1.0000   1.0000   1.0000   1.0000
     1.0000   1.0000   1.0000   1.0000   1.0000   1.0000   1.0000   1.0000
     1.0000   1.0000   1.0000   1.0000   1.0000   1.0000   1.0000   1.0000
     1.0000   1.0000   1.0000   1.0000   1.0000   1.0000   1.0000   1.0000
     1.0000   1.0000   1.0000   1.0000   1.0000   1.0000   1.0000   1.0000
     1.0000   1.0000   1.0000   1.0000   1.0000   1.0000   1.0000   1.0000
     1.0000   1.0000   1.0000   1.0000   1.0000   1.0000   1.0000   1.0000
     1.0000   1.0000   1.0000   1.0000   1.0000   1.0000   1.0000   1.0000
     1.0000   1.0000   1.0000   1.0000   1.0000   1.0000   1.0000   1.0000
     1.0000   1.0000   1.0000   1.0000   1.0000   1.0000   1.0000   1.0000
     1.0000   1.0000   1.0000   1.0000   1.0000   1.0000   1.0000   1.0000
     1.0000   1.0000   1.0000   1.0000   1.0000   1.0000   1.0000   1.0000
     1.0000   1.0000   1.0000   1.0000   1.0000   1.0000   1.0000   1.0000
     1.0000   1.0000   1.0000   1.0000   1.0000   1.0000   1.0000   1.0000
     1.0000   1.0000   1.0000   1.0000   1.0000   1.0000   1.0000   1.0000
     1.0000   1.0000   1.0000   1.0000   1.0000   1.0000   1.0000   1.0000
     1.0000   1.0000   1.0000   1.0000   1.0000   1.0000   1.0000   1.0000
     1.0000   1.0000   1.0000   1.0000   1.0000   1.0000   1.0000   1.0000
     1.0000   1.0000   1.0000   1.0000   1.0000   1.0000   1.0000   1.0000
     1.0000   1.0000   1.0000   1.0000   1.0000   1.0000   1.0000   1.0000
     1.0000   1.0000   1.0000   1.0000   1.0000   1.0000   1.0000   1.0000
     1.0000   1.0000   1.0000   1.0000   1.0000   1.0000   1.0000   1.0000
     1.0000   1.0000   1.0000   1.0000   1.0000   1.0000   1.0000   1.0000
     1.0000   1.0000   1.0000   1.0000   1.0000   1.0000   1.0000   1.0000
     1.0000   1.0000   1.0000   1.0000   1.0000   1.0000   1.0000   1.0000
     1.0000   1.0000   1.0000   1.0000   1.0000   1.0000   1.0000   1.0000
     1.0000   1.0000   1.0000   1.0000   1.0000   1.0000   1.0000   1.0000
     1.0000   1.0000   1.0000   1.0000   1.0000   1.0000   1.0000   1.0000
     1.0000   1.0000   1.0000   1.0000   1.0000   1.0000   1.0000   1.0000
     1.0000   1.0000   1.0000   1.0000   1.0000   1.0000   1.0000   1.0000
     1.0000   1.0000   1.0000   1.0000   1.0000   1.0000   1.0000   1.0000
     1.0000   1.0000   1.0000   1.0000   1.0000   1.0000   1.0000   1.0000
     1.0000   1.0000   1.0000   1.0000   1.0000   1.0000   1.0000   1.0000
     1.0000   1.0000   1.0000   1.0000   1.0000   1.0000   1.0000   1.0000
     1.0000   1.0000   1.0000   1.0000   1.0000   1.0000   1.0000   1.0000
     1.0000   1.0000   1.0000   1.0000   1.0000   1.0000   1.0000   1.0000
     1.0000   1.0000   1.0000   1.0000   1.0000   1.0000   1.0000   1.0000
     1.0000   1.0000   1.0000   1.0000   1.0000   1.0000   1.0000   1.0000
     1.0000   1.0000   1.0000   1.0000   1.0000   1.0000   1.0000   1.0000
     1.0000   1.0000   1.0000   1.0000   1.0000   1.0000   1.0000   1.0000
     1.0000   1.0000   1.0000   1.0000   1.0000   1.0000   1.0000   1.0000
     1.0000   1.0000   1.0000   1.0000   1.0000   1.0000   1.0000   1.0000
     1.0000   1.0000   1.0000   1.0000   1.0000   1.0000   1.0000   1.0000
     1.0000   1.0000   1.0000   1.0000   1.0000   1.0000   1.0000   1.0000
     1.0000   1.0000   1.0000   1.0000   1.0000   1.0000   1.0000   1.0000
     1.0000   1.0000   1.0000   1.0000   1.0000   1.0000   1.0000   1.0000
     1.0000   1.0000   1.0000   1.0000   1.0000   1.0000   1.0000   1.0000
     1.0000   1.0000   1.0000   1.0000   1.0000   1.0000   1.0000   1.0000
     1.0000   1.0000   1.0000   1.0000   1.0000   1.0000   1.0000   1.0000
     1.0000   1.0000   1.0000   1.0000   1.0000   1.0000   1.0000   1.0000
     1.0000   1.0000   1.0000   1.0000   1.0000   1.0000   1.0000   1.0000
     1.0000   1.0000   1.0000   1.0000   1.0000   1.0000   1.0000   1.0000
     1.0000   1.0000   1.0000   1.0000   1.0000   1.0000   1.0000   1.0000
     1.0000   1.0000   1.0000   1.0000   1.0000   1.0000   1.0000   1.0000
     1.0000   1.0000   1.0000   1.0000   1.0000   1.0000   1.0000   1.0000
     1.0000   1.0000   1.0000   1.0000   1.0000   1.0000   1.0000   1.0000
     1.0000   1.0000   1.0000   1.0000   1.0000   1.0000   1.0000   1.0000
     1.0000   1.0000   1.0000   1.0000   1.0000   1.0000   1.0000   1.0000
     1.0000   1.0000   1.0000   1.0000   1.0000   1.0000   1.0000   1.0000
     1.0000   1.0000   1.0000   1.0000   1.0000   1.0000   1.0000   1.0000
     1.0000   1.0000   1.0000   1.0000   1.0000   1.0000   1.0000   1.0000
     1.0000   1.0000   1.0000   1.0000   1.0000   1.0000   1.0000   1.0000
     1.0000   1.0000   1.0000   1.0000   1.0000   1.0000   1.0000   1.0000
     1.0000   1.0000   1.0000   1.0000   1.0000   1.0000   1.0000   1.0000
     1.0000   1.0000   1.0000   1.0000   1.0000   1.0000   1.0000   1.0000
     1.0000   1.0000   1.0000   1.0000   1.0000   1.0000   1.0000   1.0000
     1.0000   1.0000   1.0000   1.0000   1.0000   1.0000   1.0000   1.0000
     1.0000   1.0000   1.0000   1.0000   1.0000   1.0000   1.0000   1.0000
     1.0000   1.0000   1.0000   1.0000   1.0000   1.0000   1.0000   1.0000
     1.0000   1.0000   1.0000   1.0000   1.0000   1.0000   1.0000   1.0000
     1.0000   1.0000   1.0000   1.0000   1.0000   1.0000   1.0000   1.0000
     1.0000   1.0000   1.0000   1.0000   1.0000   1.0000   1.0000   1.0000
     1.0000   1.0000   1.0000   1.0000   1.0000   1.0000   1.0000   1.0000
     1.0000   1.0000   1.0000   1.0000   1.0000   1.0000   1.0000   1.0000
     1.0000   1.0000   1.0000   1.0000   1.0000   1.0000   1.0000   1.0000
     1.0000   1.0000   1.0000   1.0000   1.0000   1.0000   1.0000   1.0000
     1.0000   1.0000   1.0000   1.0000   1.0000   1.0000   1.0000   1.0000
     1.0000   1.0000   1.0000   1.0000   1.0000   1.0000   1.0000   1.0000
     1.0000   1.0000   1.0000   1.0001   1.0001   1.0002   1.0002   1.0003
[...]
     atom   18 type  1   force =    -0.00000494   -0.00000282    0.00000808
     atom   19 type  1   force =    -0.00001243   -0.00000044   -0.00001447
     atom   20 type  1   force =    -0.00001968    0.00004137   -0.00000815
     atom   21 type  1   force =     0.00000408   -0.00000222    0.00000725
     atom   22 type  1   force =    -0.00000192    0.00000785    0.00000493
     atom   23 type  1   force =    -0.00000214   -0.00001124    0.00000350
     atom   24 type  1   force =    -0.00000855    0.00000695   -0.00001129
     atom   25 type  1   force =    -0.00000134    0.00000206   -0.00001498
     atom   26 type  1   force =    -0.00000313    0.00000613    0.00000536
     atom   27 type  1   force =     0.00000165    0.00000633   -0.00000500
     atom   28 type  1   force =     0.00001023   -0.00002250   -0.00000354
     atom   29 type  1   force =    -0.00000553    0.00000444    0.00001629
     atom   30 type  1   force =     0.00000491   -0.00000491    0.00000150
     atom   31 type  1   force =    -0.00000685   -0.00000752   -0.00000221
     atom   32 type  1   force =    -0.00001013    0.00001136   -0.00001318
     atom   33 type  1   force =    -0.00000384    0.00001861   -0.00000595
     atom   34 type  1   force =    -0.00000117   -0.00000196    0.00000436
     atom   35 type  1   force =    -0.00001036    0.00000941   -0.00000662
     atom   36 type  1   force =    -0.00000581   -0.00001280   -0.00001091
     atom   37 type  1   force =     0.00000610    0.00000284   -0.00000049
     atom   38 type  1   force =    -0.00000519    0.00000160   -0.00000314
     atom   39 type  1   force =    -0.00000144   -0.00001970    0.00000481
     atom   40 type  1   force =    -0.00000176   -0.00000730   -0.00001370
     atom   41 type  1   force =    -0.00000462    0.00001002   -0.00000402
     atom   42 type  1   force =    -0.00000367   -0.00002734    0.00000812
     atom   43 type  1   force =    -0.00003462   -0.00000422    0.00001236
     atom   44 type  1   force =     0.00001093   -0.00001192    0.00000111
     atom   45 type  1   force =    -0.00000609    0.00000904   -0.00001370
     atom   46 type  1   force =     0.00002032    0.00000858   -0.00000902
     atom   47 type  1   force =     0.00000023    0.00001621   -0.00000034
     atom   48 type  1   force =    -0.00000316    0.00001895    0.00002027
     atom   49 type  1   force =     0.00002442    0.00002429    0.00001326
     atom   50 type  1   force =    -0.00000723   -0.00001340   -0.00000334
     atom   51 type  1   force =    -0.00000762   -0.00000277    0.00001368
     atom   52 type  1   force =    -0.00000320    0.00002419   -0.00001503
     atom   53 type  1   force =     0.00000686   -0.00000595   -0.00001183
     atom   54 type  1   force =    -0.00001269   -0.00001057   -0.00000121
     atom   55 type  1   force =    -0.00002120   -0.00000847    0.00000673
     atom   56 type  1   force =    -0.00002018   -0.00003985    0.00001232
     atom   57 type  1   force =    -0.00000139   -0.00000918   -0.00000892
     atom   58 type  1   force =    -0.00002182    0.00000719    0.00001945
     atom   59 type  1   force =     0.00000214    0.00000193    0.00001991
     atom   60 type  1   force =    -0.00001332   -0.00001052    0.00000626
     atom   61 type  1   force =    -0.00000360   -0.00001133   -0.00001174
     atom   62 type  1   force =     0.00000507    0.00000354    0.00000483
     atom   63 type  1   force =     0.00001087   -0.00001665   -0.00000699
     atom   64 type  1   force =    -0.00002956   -0.00000810    0.00000367
     atom   65 type  1   force =    -0.00000369    0.00000002   -0.00000097
     atom   66 type  1   force =    -0.00000851   -0.00000653   -0.00001129
     atom   67 type  1   force =    -0.00000652   -0.00000947    0.00000535
     atom   68 type  1   force =    -0.00003449   -0.00000135   -0.00001026
     atom   69 type  1   force =    -0.00001280   -0.00000355    0.00001299
     atom   70 type  1   force =    -0.00000617    0.00001565   -0.00000226
     atom   71 type  1   force =     0.00001292    0.00001137   -0.00001254
     atom   72 type  1   force =     0.00000154    0.00000085    0.00001091
     atom   73 type  1   force =     0.00001265   -0.00002163    0.00000144
     atom   74 type  1   force =    -0.00000111    0.00000831   -0.00000015
     atom   75 type  1   force =    -0.00000878    0.00000852    0.00001660
     atom   76 type  1   force =     0.00000776   -0.00001579   -0.00000310
     atom   77 type  1   force =    -0.00000474   -0.00000195   -0.00000656
     atom   78 type  1   force =     0.00000422   -0.00000080    0.00001500
     atom   79 type  1   force =     0.00000467    0.00002928   -0.00000673
     atom   80 type  1   force =    -0.00001520   -0.00000411    0.00000952
     atom   81 type  1   force =    -0.00000923    0.00000252    0.00000242
     atom   82 type  1   force =     0.00000533    0.00001649   -0.00000835
     atom   83 type  1   force =    -0.00000375   -0.00000630   -0.00001751
     atom   84 type  1   force =     0.00000387    0.00001176   -0.00003761
     atom   85 type  1   force =     0.00000302    0.00001164   -0.00001629
     atom   86 type  1   force =    -0.00000273   -0.00000315   -0.00001952
     atom   87 type  1   force =    -0.00000109   -0.00000422   -0.00000308
     atom   88 type  1   force =    -0.00000157   -0.00001034   -0.00000943
     atom   89 type  1   force =     0.00001566   -0.00000593    0.00001410
     atom   90 type  1   force =     0.00000498    0.00000290   -0.00000053
     atom   91 type  1   force =    -0.00001110    0.00000105    0.00001067
     atom   92 type  1   force =     0.00000585    0.00000927   -0.00000858
     atom   93 type  1   force =     0.00000045    0.00000811    0.00000965
     atom   94 type  1   force =    -0.00001257   -0.00000624   -0.00001626
     atom   95 type  1   force =    -0.00000295   -0.00000300    0.00002098
     atom   96 type  1   force =    -0.00000521    0.00001364   -0.00000608
     atom   97 type  1   force =    -0.00000114   -0.00000359   -0.00000385
     atom   98 type  1   force =    -0.00001017   -0.00001778    0.00001136
     atom   99 type  1   force =     0.00000196    0.00000347   -0.00000190
     atom  100 type  1   force =    -0.00000098   -0.00001742    0.00001174
     atom  101 type  1   force =    -0.00000564   -0.00001670   -0.00001847
     atom  102 type  1   force =    -0.00000112   -0.00000794    0.00000421
     atom  103 type  1   force =    -0.00000415    0.00002780   -0.00001102
     atom  104 type  1   force =    -0.00000200   -0.00000357   -0.00001590
     atom  105 type  1   force =    -0.00001296   -0.00000753   -0.00001091
     atom  106 type  1   force =     0.00000046   -0.00000097    0.00000005
     atom  107 type  1   force =    -0.00000033   -0.00001690    0.00000208
     atom  108 type  1   force =    -0.00001485    0.00002154   -0.00000891
     atom  109 type  1   force =    -0.00001835    0.00002148   -0.00000059
     atom  110 type  1   force =     0.00000859   -0.00001633   -0.00001622
     atom  111 type  1   force =    -0.00001361   -0.00000790    0.00000160
     atom  112 type  1   force =     0.00000735   -0.00000933   -0.00002386
     atom  113 type  1   force =    -0.00001193    0.00001663    0.00000676
     atom  114 type  1   force =    -0.00001770    0.00000353   -0.00001239
     atom  115 type  1   force =    -0.00000186   -0.00000895   -0.00000123
     atom  116 type  1   force =    -0.00001034   -0.00001635   -0.00000389
     atom  117 type  1   force =     0.00001141    0.00000072    0.00000710
     atom  118 type  1   force =     0.00000418   -0.00003277   -0.00000642
     atom  119 type  1   force =     0.00000927    0.00000281   -0.00000096
     atom  120 type  1   force =     0.00000262    0.00000860   -0.00001220
     atom  121 type  1   force =    -0.00002661   -0.00002795   -0.00000664
     atom  122 type  1   force =     0.00000995   -0.00001635   -0.00001443
     atom  123 type  1   force =    -0.00002991   -0.00000666   -0.00000422
     atom  124 type  1   force =     0.00000133    0.00001724   -0.00001034
     atom  125 type  1   force =    -0.00002818   -0.00001436   -0.00002428
     atom  126 type  1   force =    -0.00000298    0.00000985    0.00000471
     atom  127 type  1   force =    -0.00000500    0.00000433    0.00001453
     atom  128 type  1   force =     0.00000018   -0.00001936   -0.00001372
     atom  129 type  1   force =    -0.00002221   -0.00001031   -0.00001432
     atom  130 type  1   force =     0.00000004   -0.00000433    0.00000727
     atom  131 type  1   force =     0.00001169    0.00000953   -0.00000164
     atom  132 type  1   force =    -0.00000413    0.00002127   -0.00001279
     atom  133 type  1   force =    -0.00000971    0.00002727   -0.00000664
     atom  134 type  1   force =    -0.00002531    0.00003625   -0.00000439
     atom  135 type  1   force =    -0.00000259    0.00001196   -0.00000432
     atom  136 type  1   force =    -0.00000804   -0.00000650    0.00001533
     atom  137 type  1   force =     0.00000744   -0.00001859   -0.00000135
     atom  138 type  1   force =    -0.00000584   -0.00000475    0.00000583
     atom  139 type  1   force =     0.00000320    0.00001220   -0.00000057
     atom  140 type  1   force =     0.00000436   -0.00000309    0.00000398
     atom  141 type  1   force =    -0.00002134   -0.00000549   -0.00000340
     atom  142 type  1   force =    -0.00000375   -0.00002158   -0.00000194
     atom  143 type  1   force =    -0.00001885    0.00000994    0.00000114
     atom  144 type  1   force =    -0.00000151    0.00001415    0.00000315
     atom  145 type  1   force =    -0.00001854    0.00000237   -0.00002104
     atom  146 type  1   force =    -0.00001046   -0.00001172    0.00000929
     atom  147 type  1   force =    -0.00000158   -0.00000927    0.00000468
     atom  148 type  1   force =    -0.00000659   -0.00002745    0.00000817
     atom  149 type  1   force =    -0.00000833   -0.00000827    0.00000840
     atom  150 type  1   force =     0.00001811   -0.00001195   -0.00000977
     atom  151 type  1   force =     0.00000748    0.00001478   -0.00000153
     atom  152 type  1   force =     0.00000104   -0.00002545    0.00000380
     atom  153 type  1   force =     0.00000328   -0.00000401   -0.00000373
     atom  154 type  1   force =    -0.00000326    0.00000689   -0.00000492
     atom  155 type  1   force =    -0.00000859    0.00003018   -0.00000661
     atom  156 type  1   force =     0.00000630   -0.00001065    0.00001189
     atom  157 type  1   force =     0.00000599    0.00000200    0.00001788
     atom  158 type  1   force =    -0.00000447    0.00002204   -0.00000271
     atom  159 type  1   force =     0.00001215   -0.00000296    0.00002015
     atom  160 type  1   force =    -0.00000517   -0.00002505    0.00000743
     atom  161 type  1   force =    -0.00000484   -0.00000856   -0.00000668
     atom  162 type  1   force =     0.00001965   -0.00000391    0.00002037
     atom  163 type  1   force =    -0.00000069   -0.00000312   -0.00000030
     atom  164 type  1   force =     0.00000396   -0.00002669    0.00000983
     atom  165 type  1   force =    -0.00000743    0.00000947   -0.00002654
     atom  166 type  1   force =     0.00000578    0.00001577   -0.00001081
     atom  167 type  1   force =    -0.00000348    0.00000438   -0.00000239
     atom  168 type  1   force =    -0.00000259    0.00001403    0.00000482
     atom  169 type  1   force =    -0.00001256    0.00002514   -0.00001485
     atom  170 type  1   force =    -0.00000686   -0.00000435   -0.00000182
     atom  171 type  1   force =    -0.00000881    0.00001678   -0.00000609
     atom  172 type  1   force =    -0.00000696    0.00001083    0.00001362
     atom  173 type  1   force =    -0.00001229    0.00000748    0.00000686
     atom  174 type  1   force =    -0.00001653   -0.00001085   -0.00001181
     atom  175 type  1   force =     0.00001507   -0.00000685    0.00001281
     atom  176 type  1   force =    -0.00001527   -0.00000626    0.00001614
     atom  177 type  1   force =    -0.00000364   -0.00000445    0.00000045
     atom  178 type  1   force =    -0.00002561   -0.00001557    0.00000167
     atom  179 type  1   force =    -0.00001318    0.00000817    0.00000149
     atom  180 type  1   force =    -0.00000041    0.00002925    0.00000123
     atom  181 type  1   force =     0.00001122    0.00001507   -0.00002192
     atom  182 type  1   force =    -0.00001471    0.00000957    0.00001251
     atom  183 type  1   force =     0.00000068    0.00000105   -0.00000843
     atom  184 type  1   force =    -0.00000412    0.00000779    0.00000750
     atom  185 type  1   force =     0.00001506   -0.00000743   -0.00000213
     atom  186 type  1   force =     0.00000285    0.00000190   -0.00000193
     atom  187 type  1   force =     0.00002202    0.00002059   -0.00000921
     atom  188 type  1   force =    -0.00000133   -0.00000626    0.00000664
     atom  189 type  1   force =     0.00000114   -0.00000498    0.00000360
     atom  190 type  1   force =     0.00000273   -0.00000240    0.00002140
     atom  191 type  1   force =    -0.00001961    0.00001332    0.00000370
     atom  192 type  1   force =    -0.00001082    0.00000127   -0.00000894
     atom  193 type  1   force =    -0.00000030    0.00002714    0.00000431
     atom  194 type  1   force =     0.00001306    0.00000281    0.00001047
     atom  195 type  1   force =     0.00000556    0.00001476   -0.00001321
     atom  196 type  1   force =     0.00001698   -0.00000987   -0.00000244
     atom  197 type  1   force =     0.00002082    0.00001800    0.00002238
     atom  198 type  1   force =     0.00000185   -0.00001489    0.00000362
     atom  199 type  1   force =    -0.00001106   -0.00001079    0.00000502
     atom  200 type  1   force =    -0.00000102   -0.00002319    0.00000826

     Total force =     0.391088     Total SCF correction =     0.000293


     Computing stress (Cartesian axis) and pressure


     negative rho (up, down):  4.203E-02 0.000E+00
          total   stress  (Ry/bohr**3)                   (kbar)     P=   -2.23
  -0.00001495  -0.00000040  -0.00000024         -2.20     -0.06     -0.04
  -0.00000040  -0.00001436   0.00000001         -0.06     -2.11      0.00
  -0.00000024   0.00000001  -0.00001626         -0.04      0.00     -2.39

     kinetic stress (kbar)    484.85      0.13      0.10
                                0.13    484.78     -0.19
                                0.10     -0.19    484.79

     local   stress (kbar) -44028.02   5378.59    961.34
                             5378.59 -31249.50  -5149.48
                              961.34  -5149.48 -19608.60

     nonloc. stress (kbar)    595.77     -0.22      0.03
                               -0.22    595.81      0.12
                                0.03      0.12    595.71

     hartree stress (kbar)  22633.96  -2658.63   -475.56
                            -2658.63  16249.75   2547.20
                             -475.56   2547.20  10441.47

     exc-cor stress (kbar)    767.84     -0.02     -0.00
                               -0.02    767.85      0.02
                               -0.00      0.02    767.84

     corecor stress (kbar)  -1148.32      0.01     -0.00
                                0.01  -1148.32     -0.01
                               -0.00     -0.01  -1148.31

     ewald   stress (kbar)  20691.71  -2719.91   -485.95
                            -2719.91  14297.51   2602.35
                             -485.95   2602.35   8464.71

     hubbard stress (kbar)      0.00      0.00      0.00
                                0.00      0.00      0.00
                                0.00      0.00      0.00

     london  stress (kbar)      0.00      0.00      0.00
                                0.00      0.00      0.00
                                0.00      0.00      0.00

     DFT-D3  stress (kbar)      0.00      0.00      0.00
                                0.00      0.00      0.00
                                0.00      0.00      0.00

     XDM     stress (kbar)      0.00      0.00      0.00
                                0.00      0.00      0.00
                                0.00      0.00      0.00

     dft-nl  stress (kbar)      0.00      0.00      0.00
                                0.00      0.00      0.00
                                0.00      0.00      0.00

     TS-vdW  stress (kbar)      0.00      0.00      0.00
                                0.00      0.00      0.00
                                0.00      0.00      0.00



     Writing output data file scf.save/
 
     init_run     :    109.73s CPU    115.65s WALL (       1 calls)
     electrons    :  13909.72s CPU  14161.85s WALL (       1 calls)
     forces       :     15.00s CPU     15.62s WALL (       1 calls)
     stress       :    277.93s CPU    279.38s WALL (       1 calls)

     Called by init_run:
     wfcinit      :     73.17s CPU     74.58s WALL (       1 calls)
     wfcinit:atom :      0.06s CPU      0.10s WALL (       1 calls)
     wfcinit:wfcr :     73.00s CPU     74.30s WALL (       1 calls)
     potinit      :      1.28s CPU      1.34s WALL (       1 calls)
     hinit0       :      4.45s CPU      8.45s WALL (       1 calls)

     Called by electrons:
     c_bands      :   7678.48s CPU   7814.47s WALL (      34 calls)
     sum_band     :    987.02s CPU   1008.79s WALL (      34 calls)
     v_of_rho     :     26.52s CPU     27.12s WALL (      35 calls)
     v_h          :      3.82s CPU      3.89s WALL (      35 calls)
     v_xc         :     23.98s CPU     24.53s WALL (      37 calls)
     newd         :     30.64s CPU     36.01s WALL (      35 calls)
     mix_rho      :   5181.95s CPU   5268.82s WALL (      34 calls)

     Called by c_bands:
     init_us_2    :      6.41s CPU      6.49s WALL (      69 calls)
     regterg      :   7641.17s CPU   7776.47s WALL (      43 calls)

     Called by sum_band:
     sum_band:bec :      0.82s CPU      0.83s WALL (      34 calls)
     addusdens    :     28.53s CPU     33.75s WALL (      34 calls)

     Called by *egterg:
     h_psi        :   5456.47s CPU   5546.00s WALL (     550 calls)
     s_psi        :    237.54s CPU    239.43s WALL (     550 calls)
     g_psi        :      1.89s CPU      1.89s WALL (     506 calls)
     rdiaghg      :    990.78s CPU   1004.76s WALL (     549 calls)
     regterg:over :    358.83s CPU    366.02s WALL (     506 calls)
     regterg:upda :    393.32s CPU    396.42s WALL (     506 calls)
     regterg:last :    138.75s CPU    139.66s WALL (      43 calls)
     rdiaghg:chol :     26.04s CPU     26.58s WALL (     549 calls)
     rdiaghg:inve :     27.93s CPU     28.27s WALL (     549 calls)
     rdiaghg:para :     76.03s CPU     79.35s WALL (    1098 calls)

     Called by h_psi:
     h_psi:pot    :   5452.25s CPU   5541.75s WALL (     550 calls)
     h_psi:calbec :    263.47s CPU    267.63s WALL (     550 calls)
     vloc_psi     :   4948.77s CPU   5031.77s WALL (     550 calls)
     add_vuspsi   :    240.00s CPU    242.34s WALL (     550 calls)

     General routines
     calbec       :    352.81s CPU    358.54s WALL (     589 calls)
     fft          :     45.57s CPU     50.43s WALL (     403 calls)
     ffts         :   4704.54s CPU   4787.06s WALL (  107812 calls)
     fftw         :   5522.79s CPU   5618.52s WALL (  195968 calls)
     interpolate  :      5.06s CPU      5.15s WALL (      35 calls)
 
     Parallel routines
     fft_scatt_xy :    234.34s CPU    236.27s WALL (  304183 calls)
     fft_scatt_yz :   9320.73s CPU   9496.43s WALL (  304183 calls)
 
     PWSCF        :      3h59m CPU      4h 4m WALL

 
   This run was terminated on:   0: 2:42   5Dec2019            

=------------------------------------------------------------------------------=
   JOB DONE.
=------------------------------------------------------------------------------=
