
     Program PWSCF v.6.3 starts on  6Dec2019 at  3: 7:16 

     This program is part of the open-source Quantum ESPRESSO suite
     for quantum simulation of materials; please cite
         "P. Giannozzi et al., J. Phys.:Condens. Matter 21 395502 (2009);
         "P. Giannozzi et al., J. Phys.:Condens. Matter 29 465901 (2017);
          URL http://www.quantum-espresso.org", 
     in publications or presentations arising from this work. More details at
     http://www.quantum-espresso.org/quote

     Parallel version (MPI), running on   448 processors

     MPI processes distributed on    14 nodes
     R & G space division:  proc/nbgrp/npool/nimage =     448
     Reading input from scf.pwi
Warning: card &IONS ignored
Warning: card / ignored
Warning: card &CELL ignored
Warning: card    CELL_DOFREE      = '2DXY' ignored
Warning: card / ignored

     Current dimensions of program PWSCF are:
     Max number of different atomic species (ntypx) = 10
     Max number of k-points (npk) =  40000
     Max angular momentum in pseudopotentials (lmaxx) =  3

     gamma-point specific algorithms are used

     Subspace diagonalization in iterative solution of the eigenvalue problem:
     one sub-group per band group will be used
     scalapack distributed-memory algorithm (size of sub-group: 14* 14 procs)

 
     Parallelization info
     --------------------
     sticks:   dense  smooth     PW     G-vecs:    dense   smooth      PW
     Min         460     229     56               184940    65380    8140
     Max         462     232     58               184994    65412    8198
     Sum      206659  103297  25827             82864339 29296605 3662131
 


     bravais-lattice index     =            0
     lattice parameter (alat)  =      74.9798  a.u.
     unit-cell volume          =  613376.7080 (a.u.)^3
     number of atoms/cell      =          200
     number of atomic types    =            1
     number of electrons       =      2800.00
     number of Kohn-Sham states=         1680
     kinetic-energy cutoff     =      50.0000  Ry
     charge density cutoff     =     400.0000  Ry
     convergence threshold     =      2.0E-08
     mixing beta               =       0.4000
     number of iterations used =            8  local-TF  mixing
     Exchange-correlation      = SLA  PW   PSX  PSC ( 1  4 10  8 0 0)

     celldm(1)=  74.979798  celldm(2)=   0.000000  celldm(3)=   0.000000
     celldm(4)=   0.000000  celldm(5)=   0.000000  celldm(6)=   0.000000

     crystal axes: (cart. coord. in units of alat)
               a(1) = (   1.000000   0.000000   0.000000 )  
               a(2) = (   0.000000   1.154702   0.000000 )  
               a(3) = (   0.000000   0.000000   1.260157 )  

     reciprocal axes: (cart. coord. in units 2 pi/alat)
               b(1) = (  1.000000  0.000000  0.000000 )  
               b(2) = (  0.000000  0.866024  0.000000 )  
               b(3) = (  0.000000  0.000000  0.793552 )  


     PseudoPot. # 1 for Sn read from file:
     /n/home08/xiey/q-e/pseudo/sn_pbesol_v1.4.uspp.F.UPF
     MD5 check sum: 463fec1d5456f1e96ec1bfcad4b7b038
     Pseudo is Ultrasoft + core correction, Zval = 14.0
     Generated by new atomic code, or converted to UPF format
     Using radial grid of  891 points,  6 beta functions with: 
                l(1) =   0
                l(2) =   0
                l(3) =   1
                l(4) =   1
                l(5) =   2
                l(6) =   2
     Q(r) pseudized with  8 coefficients,  rinner =    1.350   1.350   1.350
                                                       1.350   1.350

     atomic species   valence    mass     pseudopotential
        Sn            14.00   118.71000     Sn( 1.00)

     No symmetry found


                                    s                        frac. trans.

      isym =  1     identity                                     

 cryst.   s( 1) = (     1          0          0      )
                  (     0          1          0      )
                  (     0          0          1      )

 cart.    s( 1) = (  1.0000000  0.0000000  0.0000000 )
                  (  0.0000000  1.0000000  0.0000000 )
                  (  0.0000000  0.0000000  1.0000000 )


   Cartesian axes

     site n.     atom                  positions (alat units)
         1           Sn  tau(   1) = (   0.6536686   0.3892146   0.0320934  )
         2           Sn  tau(   2) = (   0.6499360   0.5051112   0.1761397  )
         3           Sn  tau(   3) = (   0.7156910   0.2835731   1.2499849  )
         4           Sn  tau(   4) = (   0.5724187   0.6796404   1.1572449  )
         5           Sn  tau(   5) = (   0.7023762   0.6099210   1.2049393  )
         6           Sn  tau(   6) = (   0.5688525   0.6316738   1.0680787  )
         7           Sn  tau(   7) = (   0.5989022   0.5117623   1.1679033  )
         8           Sn  tau(   8) = (   0.6319939   0.3189482   0.1361133  )
         9           Sn  tau(   9) = (   0.3670812   0.5864442   1.1268802  )
        10           Sn  tau(  10) = (   0.5721339   0.7021796   1.0873818  )
        11           Sn  tau(  11) = (   0.3897665   0.4648467   0.0690949  )
        12           Sn  tau(  12) = (   0.7662560   0.5397378   1.2246885  )
        13           Sn  tau(  13) = (   0.5498442   0.4726118   1.0261936  )
        14           Sn  tau(  14) = (   0.7278338   0.5349366   0.1806261  )
        15           Sn  tau(  15) = (   0.7258831   0.5268665   1.0939674  )
        16           Sn  tau(  16) = (   0.7087173   0.3569092   0.1602622  )
        17           Sn  tau(  17) = (   0.5051893   0.6424784   1.1207205  )
        18           Sn  tau(  18) = (   0.7046318   0.2248080   0.0705101  )
        19           Sn  tau(  19) = (   0.4100525   0.4049438   1.2613666  )
        20           Sn  tau(  20) = (   0.4312811   0.6378435   1.0780642  )
        21           Sn  tau(  21) = (   0.7596200   0.4978981   0.0662853  )
        22           Sn  tau(  22) = (   0.3060568   0.5450078   1.1279437  )
        23           Sn  tau(  23) = (   0.7549978   0.4706081   1.2532386  )
        24           Sn  tau(  24) = (   0.5923997   0.3435944   0.0011220  )
        25           Sn  tau(  25) = (   0.5051036   0.4238890   1.0842289  )
        26           Sn  tau(  26) = (   0.3961177   0.2795129   0.1158598  )
        27           Sn  tau(  27) = (   0.7183600   0.4492862   1.1061481  )
        28           Sn  tau(  28) = (   0.4736778   0.2963889   1.2301576  )
        29           Sn  tau(  29) = (   0.4918770   0.3504723   1.0479288  )
        30           Sn  tau(  30) = (   0.4582107   0.6523328   0.1289871  )
        31           Sn  tau(  31) = (   0.7172309   0.3007742   0.1082712  )
        32           Sn  tau(  32) = (   0.3953137   0.3192910   1.2477015  )
        33           Sn  tau(  33) = (   0.5856277   0.2997081   1.1869518  )
        34           Sn  tau(  34) = (   0.6628173   0.3124509   1.1964080  )
        35           Sn  tau(  35) = (   0.5553234   0.3198278   0.2522683  )
        36           Sn  tau(  36) = (   0.6093337   0.2113759   0.1392680  )
        37           Sn  tau(  37) = (   0.6214791   0.3961202   0.1622764  )
        38           Sn  tau(  38) = (   0.5737595   0.3599663   0.0908404  )
        39           Sn  tau(  39) = (   0.8030350   0.4376978   0.1038702  )
        40           Sn  tau(  40) = (   0.4185183   0.3750605   0.2236713  )
        41           Sn  tau(  41) = (   0.6137216   0.4435677   0.0971725  )
        42           Sn  tau(  42) = (   0.7706817   0.3713556   0.1200819  )
        43           Sn  tau(  43) = (   0.3766659   0.6085373   1.2537704  )
        44           Sn  tau(  44) = (   0.3301863   0.5521856   1.2552649  )
        45           Sn  tau(  45) = (   0.6190697   0.3775732   1.1730523  )
        46           Sn  tau(  46) = (   0.5085287   0.2730205   0.1900380  )
        47           Sn  tau(  47) = (   0.4216132   0.5592198   1.0699790  )
        48           Sn  tau(  48) = (   0.4382322   0.4839607   1.2485508  )
        49           Sn  tau(  49) = (   0.5271841   0.3364115   1.1448954  )
        50           Sn  tau(  50) = (   0.7129060   0.5470669   0.0982454  )
        51           Sn  tau(  51) = (   0.7434648   0.6136838   0.0801379  )
        52           Sn  tau(  52) = (   0.3307811   0.5943984   1.1984797  )
        53           Sn  tau(  53) = (   0.5483623   0.5007107   0.0761190  )
        54           Sn  tau(  54) = (   0.6823523   0.4061410   0.2145266  )
        55           Sn  tau(  55) = (   0.3449982   0.3402398   0.0359452  )
        56           Sn  tau(  56) = (   0.5162560   0.5173448   0.0078376  )
        57           Sn  tau(  57) = (   0.5721213   0.5997061   0.1857242  )
        58           Sn  tau(  58) = (   0.5206086   0.3502379   0.1619052  )
        59           Sn  tau(  59) = (   0.6997752   0.4658548   0.1256129  )
        60           Sn  tau(  60) = (   0.5535567   0.4208193   0.0488674  )
        61           Sn  tau(  61) = (   0.6159521   0.3509940   0.2204161  )
        62           Sn  tau(  62) = (   0.3977836   0.5353323   0.0436995  )
        63           Sn  tau(  63) = (   0.6957755   0.3770515   1.1414778  )
        64           Sn  tau(  64) = (   0.7455542   0.4286726   1.1890260  )
        65           Sn  tau(  65) = (   0.3441035   0.4528802   0.1361519  )
        66           Sn  tau(  66) = (   0.5298682   0.2555346   1.2239576  )
        67           Sn  tau(  67) = (   0.6420928   0.2559177   0.0931669  )
        68           Sn  tau(  68) = (   0.7715184   0.4942285   0.1452462  )
        69           Sn  tau(  69) = (   0.8187340   0.4421790   0.0141013  )
        70           Sn  tau(  70) = (   0.4659606   0.4936085   1.0529669  )
        71           Sn  tau(  71) = (   0.3607728   0.4780229  -0.0078173  )
        72           Sn  tau(  72) = (   0.3384353   0.4154208   0.0321849  )
        73           Sn  tau(  73) = (   0.6006991   0.5026715   1.0775551  )
        74           Sn  tau(  74) = (   0.5453304   0.3883375   0.2273981  )
        75           Sn  tau(  75) = (   0.6656123   0.3140210   0.0500693  )
        76           Sn  tau(  76) = (   0.5793546   0.5683181   1.1094976  )
        77           Sn  tau(  77) = (   0.6293249   0.4071189   1.0934860  )
        78           Sn  tau(  78) = (   0.6191932   0.4535481   0.2370917  )
        79           Sn  tau(  79) = (   0.6174063   0.4330075   1.0186377  )
        80           Sn  tau(  80) = (   0.5709065   0.4515243   0.1662480  )
        81           Sn  tau(  81) = (   0.3956111   0.4661270   1.0695783  )
        82           Sn  tau(  82) = (   0.4866423   0.4752606   1.1773948  )
        83           Sn  tau(  83) = (   0.5923997   0.2723779   1.2619034  )
        84           Sn  tau(  84) = (   0.5384474   0.5482111   1.0507994  )
        85           Sn  tau(  85) = (   0.5647166   0.5214731   0.1981763  )
        86           Sn  tau(  86) = (   0.7033187   0.5544438   0.0190330  )
        87           Sn  tau(  87) = (   0.4269916   0.2187199   0.0382372  )
        88           Sn  tau(  88) = (   0.7773177   0.3845545   1.2420661  )
        89           Sn  tau(  89) = (   0.5350223   0.2652277   0.0484979  )
        90           Sn  tau(  90) = (   0.5395664   0.1895558   0.0752540  )
        91           Sn  tau(  91) = (   0.5066814   0.3555633   0.0472125  )
        92           Sn  tau(  92) = (   0.5052297   0.4603378   0.1312862  )
        93           Sn  tau(  93) = (   0.5580731   0.6767647   1.2341497  )
        94           Sn  tau(  94) = (   0.4543168   0.5852597   0.0843615  )
        95           Sn  tau(  95) = (   0.5618309   0.3678171   1.0773257  )
        96           Sn  tau(  96) = (   0.6938046   0.2410673   0.1439374  )
        97           Sn  tau(  97) = (   0.4470230   0.6775460   1.1520505  )
        98           Sn  tau(  98) = (   0.4622180   0.3970074   1.1461404  )
        99           Sn  tau(  99) = (   0.4505464   0.3240670   1.1647252  )
       100           Sn  tau( 100) = (   0.5447003   0.3686791   1.2055770  )
       101           Sn  tau( 101) = (   0.6144021   0.1970028   0.0541885  )
       102           Sn  tau( 102) = (   0.5949226   0.4992111   1.2574097  )
       103           Sn  tau( 103) = (   0.4940369   0.6337278   1.2041479  )
       104           Sn  tau( 104) = (   0.3702769   0.2700441   0.0478590  )
       105           Sn  tau( 105) = (   0.4692698   0.1648555   0.0697623  )
       106           Sn  tau( 106) = (   0.6755071   0.4003014   0.1060057  )
       107           Sn  tau( 107) = (   0.6206978   0.5720154   0.0209661  )
       108           Sn  tau( 108) = (   0.4536741   0.5824117   1.2665131  )
       109           Sn  tau( 109) = (   0.7620370   0.4930641   1.1628954  )
       110           Sn  tau( 110) = (   0.3902781   0.5144414   0.1431357  )
       111           Sn  tau( 111) = (   0.5414818   0.5868298   1.2544736  )
       112           Sn  tau( 112) = (   0.3801389   0.4024235   1.1133990  )
       113           Sn  tau( 113) = (   0.5208808   0.4949846   1.1091598  )
       114           Sn  tau( 114) = (   0.7015873   0.4796182   0.2209194  )
       115           Sn  tau( 115) = (   0.4632866   0.1734364   0.1435082  )
       116           Sn  tau( 116) = (   0.3532648   0.4074364   0.1918662  )
       117           Sn  tau( 117) = (   0.4586492   0.5409123   0.1589040  )
       118           Sn  tau( 118) = (   0.7473990   0.3333770   0.0400576  )
       119           Sn  tau( 119) = (   0.6280748   0.5650468   1.2108091  )
       120           Sn  tau( 120) = (   0.5407963   0.6690122   0.1526027  )
       121           Sn  tau( 121) = (   0.5109256   0.7267325   1.1258821  )
       122           Sn  tau( 122) = (   0.6601735   0.2814888   0.1927939  )
       123           Sn  tau( 123) = (   0.3817242   0.6255519   0.0716344  )
       124           Sn  tau( 124) = (   0.4971218   0.2113966   0.0144780  )
       125           Sn  tau( 125) = (   0.7464640   0.4092813   0.0514096  )
       126           Sn  tau( 126) = (   0.3741481   0.5259718   1.1948102  )
       127           Sn  tau( 127) = (   0.4842934   0.3316985   0.2283429  )
       128           Sn  tau( 128) = (   0.4971193   0.6818280   1.0589552  )
       129           Sn  tau( 129) = (   0.3482267   0.5617074   0.0927480  )
       130           Sn  tau( 130) = (   0.6586613   0.4763872   1.1394187  )
       131           Sn  tau( 131) = (   0.6063749   0.6466344   0.0428380  )
       132           Sn  tau( 132) = (   0.5274513   0.5926417   0.1137564  )
       133           Sn  tau( 133) = (   0.6080887   0.6405730   0.1252180  )
       134           Sn  tau( 134) = (   0.3199942   0.3964706   0.0985992  )
       135           Sn  tau( 135) = (   0.3366055   0.4312887   1.1787659  )
       136           Sn  tau( 136) = (   0.4716061   0.3657631   1.2323024  )
       137           Sn  tau( 137) = (   0.7528177   0.3263327   1.1923629  )
       138           Sn  tau( 138) = (   0.6924764   0.6348141   0.0119144  )
       139           Sn  tau( 139) = (   0.5264557   0.5424093   1.1844769  )
       140           Sn  tau( 140) = (   0.7003297   0.3591397   1.2401178  )
       141           Sn  tau( 141) = (   0.6336270   0.3273837   1.1247480  )
       142           Sn  tau( 142) = (   0.5030622   0.4902766   0.1931591  )
       143           Sn  tau( 143) = (   0.7538132   0.4279694   0.1780960  )
       144           Sn  tau( 144) = (   0.6314167   0.6514557   1.2268282  )
       145           Sn  tau( 145) = (   0.4773827   0.4240075   0.0457805  )
       146           Sn  tau( 146) = (   0.6905937   0.5170096   1.2057887  )
       147           Sn  tau( 147) = (   0.4425142   0.3637115   0.1469527  )
       148           Sn  tau( 148) = (   0.5831603   0.5456933   0.1243326  )
       149           Sn  tau( 149) = (   0.4682819   0.2516085   0.1150059  )
       150           Sn  tau( 150) = (   0.4153855   0.3037885   0.1909879  )
       151           Sn  tau( 151) = (   0.6679865   0.4751119   1.0504592  )
       152           Sn  tau( 152) = (   0.4155140   0.2229172   0.1658661  )
       153           Sn  tau( 153) = (   0.3683716   0.3456409   0.1488235  )
       154           Sn  tau( 154) = (   0.6546994   0.5779281   0.1457288  )
       155           Sn  tau( 155) = (   0.6597803   0.4710592   0.0060143  )
       156           Sn  tau( 156) = (   0.5708763   0.6003967   1.1848121  )
       157           Sn  tau( 157) = (   0.5551772   0.2849441   0.1212339  )
       158           Sn  tau( 158) = (   0.5122966   0.6455834   0.0389262  )
       159           Sn  tau( 159) = (   0.4873884   0.6056717   0.1762622  )
       160           Sn  tau( 160) = (   0.4816244   0.3212115   0.1010553  )
       161           Sn  tau( 161) = (   0.6454397   0.5077701   0.0742457  )
       162           Sn  tau( 162) = (   0.6706882   0.6066849   0.0759386  )
       163           Sn  tau( 163) = (   0.4393890   0.4369770   0.1175127  )
       164           Sn  tau( 164) = (   0.6428111   0.6406159   1.1486607  )
       165           Sn  tau( 165) = (   0.5766805   0.4456822   1.1254637  )
       166           Sn  tau( 166) = (   0.4487217   0.2865017   0.0424927  )
       167           Sn  tau( 167) = (   0.4051455   0.6093715   1.1825791  )
       168           Sn  tau( 168) = (   0.5293516   0.1981251   0.1484132  )
       169           Sn  tau( 169) = (   0.8047185   0.5538188   0.0477037  )
       170           Sn  tau( 170) = (   0.4350263   0.6588856   1.2500277  )
       171           Sn  tau( 171) = (   0.4815261   0.6001321   1.0430520  )
       172           Sn  tau( 172) = (   0.3546409   0.4899439   1.1325383  )
       173           Sn  tau( 173) = (   0.5028530   0.2694518   1.1585202  )
       174           Sn  tau( 174) = (   0.6666759   0.5605001   1.1350535  )
       175           Sn  tau( 175) = (   0.4231330   0.3435087   1.0920368  )
       176           Sn  tau( 176) = (   0.5878833   0.2799943   0.1899180  )
       177           Sn  tau( 177) = (   0.4844925   0.4324758   0.9962069  )
       178           Sn  tau( 178) = (   0.4788571   0.7115577   1.2140981  )
       179           Sn  tau( 179) = (   0.7621101   0.6083206   0.0027138  )
       180           Sn  tau( 180) = (   0.4113933   0.6018560   0.1521735  )
       181           Sn  tau( 181) = (   0.5902928   0.4228053   1.2380487  )
       182           Sn  tau( 182) = (   0.4420655   0.6764270   0.0623856  )
       183           Sn  tau( 183) = (   0.4761906   0.4227549   0.2163266  )
       184           Sn  tau( 184) = (   0.5459907   0.3932748   1.0119791  )
       185           Sn  tau( 185) = (   0.3869463   0.3663352   1.1900871  )
       186           Sn  tau( 186) = (   0.4081799   0.4545890   0.1857023  )
       187           Sn  tau( 187) = (   0.7454055   0.5677032   1.1583135  )
       188           Sn  tau( 188) = (   0.4945838   0.5711863   1.1100621  )
       189           Sn  tau( 189) = (   0.6556672   0.2409606   1.2587858  )
       190           Sn  tau( 190) = (   0.5587208   0.6796480   0.0826620  )
       191           Sn  tau( 191) = (   0.4104633   0.4470507   1.1808728  )
       192           Sn  tau( 192) = (   0.6422037   0.6056087   1.0719071  )
       193           Sn  tau( 193) = (   0.4243074   0.5239682   1.1286469  )
       194           Sn  tau( 194) = (   0.5118606   0.4401476   1.2436060  )
       195           Sn  tau( 195) = (   0.4480337   0.5457160   1.1996719  )
       196           Sn  tau( 196) = (   0.4384993   0.4058134   1.0509003  )
       197           Sn  tau( 197) = (   0.3937688   0.3776463   0.0795174  )
       198           Sn  tau( 198) = (   0.4702225   0.5107365   0.0873064  )
       199           Sn  tau( 199) = (   0.7844426   0.5644646   0.1204118  )
       200           Sn  tau( 200) = (   0.6756255   0.4248543   1.2011664  )

   Crystallographic axes

     site n.     atom                  positions (cryst. coord.)
         1           Sn  tau(   1) = (  0.6536686  0.3370693  0.0254678  )
         2           Sn  tau(   2) = (  0.6499360  0.4374386  0.1397760  )
         3           Sn  tau(   3) = (  0.7156910  0.2455812  0.9919280  )
         4           Sn  tau(   4) = (  0.5724187  0.5885852  0.9183340  )
         5           Sn  tau(   5) = (  0.7023762  0.5282064  0.9561820  )
         6           Sn  tau(   6) = (  0.5688525  0.5470449  0.8475760  )
         7           Sn  tau(   7) = (  0.5989022  0.4431986  0.9267920  )
         8           Sn  tau(   8) = (  0.6319939  0.2762169  0.1080130  )
         9           Sn  tau(   9) = (  0.3670812  0.5078750  0.8942380  )
        10           Sn  tau(  10) = (  0.5721339  0.6081046  0.8628940  )
        11           Sn  tau(  11) = (  0.3897665  0.4025685  0.0548304  )
        12           Sn  tau(  12) = (  0.7662560  0.4674261  0.9718540  )
        13           Sn  tau(  13) = (  0.5498442  0.4092933  0.8143380  )
        14           Sn  tau(  14) = (  0.7278338  0.4632681  0.1433362  )
        15           Sn  tau(  15) = (  0.7258831  0.4562793  0.8681200  )
        16           Sn  tau(  16) = (  0.7087173  0.3090921  0.1271764  )
        17           Sn  tau(  17) = (  0.5051893  0.5564019  0.8893500  )
        18           Sn  tau(  18) = (  0.7046318  0.1946892  0.0559534  )
        19           Sn  tau(  19) = (  0.4100525  0.3506912  1.0009600  )
        20           Sn  tau(  20) = (  0.4312811  0.5523880  0.8555000  )
        21           Sn  tau(  21) = (  0.7596200  0.4311919  0.0526008  )
        22           Sn  tau(  22) = (  0.3060568  0.4719900  0.8950820  )
        23           Sn  tau(  23) = (  0.7549978  0.4075581  0.9945100  )
        24           Sn  tau(  24) = (  0.5923997  0.2975611  0.0008903  )
        25           Sn  tau(  25) = (  0.5051036  0.3670982  0.8603920  )
        26           Sn  tau(  26) = (  0.3961177  0.2420650  0.0919408  )
        27           Sn  tau(  27) = (  0.7183600  0.3890928  0.8777860  )
        28           Sn  tau(  28) = (  0.4736778  0.2566800  0.9761940  )
        29           Sn  tau(  29) = (  0.4918770  0.3035176  0.8315860  )
        30           Sn  tau(  30) = (  0.4582107  0.5649361  0.1023580  )
        31           Sn  tau(  31) = (  0.7172309  0.2604778  0.0859188  )
        32           Sn  tau(  32) = (  0.3953137  0.2765138  0.9901160  )
        33           Sn  tau(  33) = (  0.5856277  0.2595546  0.9419080  )
        34           Sn  tau(  34) = (  0.6628173  0.2705901  0.9494120  )
        35           Sn  tau(  35) = (  0.5553234  0.2769787  0.2001880  )
        36           Sn  tau(  36) = (  0.6093337  0.1830567  0.1105164  )
        37           Sn  tau(  37) = (  0.6214791  0.3430498  0.1287748  )
        38           Sn  tau(  38) = (  0.5737595  0.3117396  0.0720866  )
        39           Sn  tau(  39) = (  0.8030350  0.3790570  0.0824264  )
        40           Sn  tau(  40) = (  0.4185183  0.3248115  0.1774948  )
        41           Sn  tau(  41) = (  0.6137216  0.3841404  0.0771114  )
        42           Sn  tau(  42) = (  0.7706817  0.3216030  0.0952912  )
        43           Sn  tau(  43) = (  0.3766659  0.5270082  0.9949320  )
        44           Sn  tau(  44) = (  0.3301863  0.4782062  0.9961180  )
        45           Sn  tau(  45) = (  0.6190697  0.3269876  0.9308780  )
        46           Sn  tau(  46) = (  0.5085287  0.2364424  0.1508050  )
        47           Sn  tau(  47) = (  0.4216132  0.4842980  0.8490840  )
        48           Sn  tau(  48) = (  0.4382322  0.4191218  0.9907900  )
        49           Sn  tau(  49) = (  0.5271841  0.2913405  0.9085340  )
        50           Sn  tau(  50) = (  0.7129060  0.4737732  0.0779628  )
        51           Sn  tau(  51) = (  0.7434648  0.5314651  0.0635936  )
        52           Sn  tau(  52) = (  0.3307811  0.5147635  0.9510560  )
        53           Sn  tau(  53) = (  0.5483623  0.4336277  0.0604044  )
        54           Sn  tau(  54) = (  0.6823523  0.3517280  0.1702380  )
        55           Sn  tau(  55) = (  0.3449982  0.2946560  0.0285244  )
        56           Sn  tau(  56) = (  0.5162560  0.4480332  0.0062195  )
        57           Sn  tau(  57) = (  0.5721213  0.5193601  0.1473818  )
        58           Sn  tau(  58) = (  0.5206086  0.3033146  0.1284802  )
        59           Sn  tau(  59) = (  0.6997752  0.4034416  0.0996804  )
        60           Sn  tau(  60) = (  0.5535567  0.3644398  0.0387788  )
        61           Sn  tau(  61) = (  0.6159521  0.3039694  0.1749116  )
        62           Sn  tau(  62) = (  0.3977836  0.4636108  0.0346778  )
        63           Sn  tau(  63) = (  0.6957755  0.3265358  0.9058220  )
        64           Sn  tau(  64) = (  0.7455542  0.3712409  0.9435540  )
        65           Sn  tau(  65) = (  0.3441035  0.3922053  0.1080436  )
        66           Sn  tau(  66) = (  0.5298682  0.2212992  0.9712740  )
        67           Sn  tau(  67) = (  0.6420928  0.2216310  0.0739328  )
        68           Sn  tau(  68) = (  0.7715184  0.4280139  0.1152604  )
        69           Sn  tau(  69) = (  0.8187340  0.3829378  0.0111901  )
        70           Sn  tau(  70) = (  0.4659606  0.4274770  0.8355840  )
        71           Sn  tau(  71) = (  0.3607728  0.4139795 -0.0062034  )
        72           Sn  tau(  72) = (  0.3384353  0.3597645  0.0255404  )
        73           Sn  tau(  73) = (  0.6006991  0.4353258  0.8550960  )
        74           Sn  tau(  74) = (  0.5453304  0.3363097  0.1804522  )
        75           Sn  tau(  75) = (  0.6656123  0.2719499  0.0397326  )
        76           Sn  tau(  76) = (  0.5793546  0.4921774  0.8804440  )
        77           Sn  tau(  77) = (  0.6293249  0.3525749  0.8677380  )
        78           Sn  tau(  78) = (  0.6191932  0.3927837  0.1881446  )
        79           Sn  tau(  79) = (  0.6174063  0.3749951  0.8083420  )
        80           Sn  tau(  80) = (  0.5709065  0.3910310  0.1319264  )
        81           Sn  tau(  81) = (  0.3956111  0.4036773  0.8487660  )
        82           Sn  tau(  82) = (  0.4866423  0.4115873  0.9343240  )
        83           Sn  tau(  83) = (  0.5923997  0.2358859  1.0013860  )
        84           Sn  tau(  84) = (  0.5384474  0.4747642  0.8338640  )
        85           Sn  tau(  85) = (  0.5647166  0.4516084  0.1572632  )
        86           Sn  tau(  86) = (  0.7033187  0.4801619  0.0151037  )
        87           Sn  tau(  87) = (  0.4269916  0.1894168  0.0303432  )
        88           Sn  tau(  88) = (  0.7773177  0.3330336  0.9856440  )
        89           Sn  tau(  89) = (  0.5350223  0.2296937  0.0384856  )
        90           Sn  tau(  90) = (  0.5395664  0.1641600  0.0597180  )
        91           Sn  tau(  91) = (  0.5066814  0.3079265  0.0374656  )
        92           Sn  tau(  92) = (  0.5052297  0.3986638  0.1041824  )
        93           Sn  tau(  93) = (  0.5580731  0.5860948  0.9793620  )
        94           Sn  tau(  94) = (  0.4543168  0.5068492  0.0669452  )
        95           Sn  tau(  95) = (  0.5618309  0.3185386  0.8549140  )
        96           Sn  tau(  96) = (  0.6938046  0.2087701  0.1142218  )
        97           Sn  tau(  97) = (  0.4470230  0.5867714  0.9142120  )
        98           Sn  tau(  98) = (  0.4622180  0.3438181  0.9095220  )
        99           Sn  tau(  99) = (  0.4505464  0.2806499  0.9242700  )
       100           Sn  tau( 100) = (  0.5447003  0.3192851  0.9566880  )
       101           Sn  tau( 101) = (  0.6144021  0.1706093  0.0430014  )
       102           Sn  tau( 102) = (  0.5949226  0.4323290  0.9978200  )
       103           Sn  tau( 103) = (  0.4940369  0.5488238  0.9555540  )
       104           Sn  tau( 104) = (  0.3702769  0.2338647  0.0379786  )
       105           Sn  tau( 105) = (  0.4692698  0.1427689  0.0553600  )
       106           Sn  tau( 106) = (  0.6755071  0.3466708  0.0841210  )
       107           Sn  tau( 107) = (  0.6206978  0.4953793  0.0166377  )
       108           Sn  tau( 108) = (  0.4536741  0.5043828  1.0050440  )
       109           Sn  tau( 109) = (  0.7620370  0.4270055  0.9228180  )
       110           Sn  tau( 110) = (  0.3902781  0.4455188  0.1135856  )
       111           Sn  tau( 111) = (  0.5414818  0.5082090  0.9954900  )
       112           Sn  tau( 112) = (  0.3801389  0.3485086  0.8835400  )
       113           Sn  tau( 113) = (  0.5208808  0.4286687  0.8801760  )
       114           Sn  tau( 114) = (  0.7015873  0.4153611  0.1753110  )
       115           Sn  tau( 115) = (  0.4632866  0.1502001  0.1138812  )
       116           Sn  tau( 116) = (  0.3532648  0.3528499  0.1522558  )
       117           Sn  tau( 117) = (  0.4586492  0.4684432  0.1260986  )
       118           Sn  tau( 118) = (  0.7473990  0.2887126  0.0317878  )
       119           Sn  tau( 119) = (  0.6280748  0.4893443  0.9608400  )
       120           Sn  tau( 120) = (  0.5407963  0.5793809  0.1210982  )
       121           Sn  tau( 121) = (  0.5109256  0.6293680  0.8934460  )
       122           Sn  tau( 122) = (  0.6601735  0.2437762  0.1529920  )
       123           Sn  tau( 123) = (  0.3817242  0.5417432  0.0568456  )
       124           Sn  tau( 124) = (  0.4971218  0.1830746  0.0114891  )
       125           Sn  tau( 125) = (  0.7464640  0.3544476  0.0407962  )
       126           Sn  tau( 126) = (  0.3741481  0.4555044  0.9481440  )
       127           Sn  tau( 127) = (  0.4842934  0.2872590  0.1812020  )
       128           Sn  tau( 128) = (  0.4971193  0.5904797  0.8403360  )
       129           Sn  tau( 129) = (  0.3482267  0.4864523  0.0736004  )
       130           Sn  tau( 130) = (  0.6586613  0.4125629  0.9041880  )
       131           Sn  tau( 131) = (  0.6063749  0.5600011  0.0339942  )
       132           Sn  tau( 132) = (  0.5274513  0.5132422  0.0902716  )
       133           Sn  tau( 133) = (  0.6080887  0.5547519  0.0993670  )
       134           Sn  tau( 134) = (  0.3199942  0.3433532  0.0782436  )
       135           Sn  tau( 135) = (  0.3366055  0.3735065  0.9354120  )
       136           Sn  tau( 136) = (  0.4716061  0.3167597  0.9778960  )
       137           Sn  tau( 137) = (  0.7528177  0.2826121  0.9462020  )
       138           Sn  tau( 138) = (  0.6924764  0.5497645  0.0094547  )
       139           Sn  tau( 139) = (  0.5264557  0.4697397  0.9399440  )
       140           Sn  tau( 140) = (  0.7003297  0.3110237  0.9840980  )
       141           Sn  tau( 141) = (  0.6336270  0.2835223  0.8925460  )
       142           Sn  tau( 142) = (  0.5030622  0.4245915  0.1532818  )
       143           Sn  tau( 143) = (  0.7538132  0.3706320  0.1413284  )
       144           Sn  tau( 144) = (  0.6314167  0.5641766  0.9735520  )
       145           Sn  tau( 145) = (  0.4773827  0.3672008  0.0363292  )
       146           Sn  tau( 146) = (  0.6905937  0.4477429  0.9568560  )
       147           Sn  tau( 147) = (  0.4425142  0.3149830  0.1166146  )
       148           Sn  tau( 148) = (  0.5831603  0.4725837  0.0986644  )
       149           Sn  tau( 149) = (  0.4682819  0.2178991  0.0912632  )
       150           Sn  tau( 150) = (  0.4153855  0.2630883  0.1515588  )
       151           Sn  tau( 151) = (  0.6679865  0.4114585  0.8335940  )
       152           Sn  tau( 152) = (  0.4155140  0.1930517  0.1316234  )
       153           Sn  tau( 153) = (  0.3683716  0.2993334  0.1180992  )
       154           Sn  tau( 154) = (  0.6546994  0.5004998  0.1156434  )
       155           Sn  tau( 155) = (  0.6597803  0.4079488  0.0047727  )
       156           Sn  tau( 156) = (  0.5708763  0.5199582  0.9402100  )
       157           Sn  tau( 157) = (  0.5551772  0.2467686  0.0962054  )
       158           Sn  tau( 158) = (  0.5122966  0.5590910  0.0308900  )
       159           Sn  tau( 159) = (  0.4873884  0.5245265  0.1398732  )
       160           Sn  tau( 160) = (  0.4816244  0.2781770  0.0801926  )
       161           Sn  tau( 161) = (  0.6454397  0.4397413  0.0589178  )
       162           Sn  tau( 162) = (  0.6706882  0.5254039  0.0602612  )
       163           Sn  tau( 163) = (  0.4393890  0.3784328  0.0932524  )
       164           Sn  tau( 164) = (  0.6428111  0.5547890  0.9115220  )
       165           Sn  tau( 165) = (  0.5766805  0.3859717  0.8931140  )
       166           Sn  tau( 166) = (  0.4487217  0.2481175  0.0337202  )
       167           Sn  tau( 167) = (  0.4051455  0.5277306  0.9384380  )
       168           Sn  tau( 168) = (  0.5293516  0.1715812  0.1177736  )
       169           Sn  tau( 169) = (  0.8047185  0.4796206  0.0378554  )
       170           Sn  tau( 170) = (  0.4350263  0.5706110  0.9919620  )
       171           Sn  tau( 171) = (  0.4815261  0.5197290  0.8277160  )
       172           Sn  tau( 172) = (  0.3546409  0.4243034  0.8987280  )
       173           Sn  tau( 173) = (  0.5028530  0.2333518  0.9193460  )
       174           Sn  tau( 174) = (  0.6666759  0.4854068  0.9007240  )
       175           Sn  tau( 175) = (  0.4231330  0.2974869  0.8665880  )
       176           Sn  tau( 176) = (  0.5878833  0.2424819  0.1507098  )
       177           Sn  tau( 177) = (  0.4844925  0.3745345  0.7905420  )
       178           Sn  tau( 178) = (  0.4788571  0.6162263  0.9634500  )
       179           Sn  tau( 179) = (  0.7621101  0.5268204  0.0021536  )
       180           Sn  tau( 180) = (  0.4113933  0.5212219  0.1207576  )
       181           Sn  tau( 181) = (  0.5902928  0.3661597  0.9824560  )
       182           Sn  tau( 182) = (  0.4420655  0.5858023  0.0495062  )
       183           Sn  tau( 183) = (  0.4761906  0.3661161  0.1716664  )
       184           Sn  tau( 184) = (  0.5459907  0.3405856  0.8030580  )
       185           Sn  tau( 185) = (  0.3869463  0.3172552  0.9443960  )
       186           Sn  tau( 186) = (  0.4081799  0.3936851  0.1473644  )
       187           Sn  tau( 187) = (  0.7454055  0.4916448  0.9191820  )
       188           Sn  tau( 188) = (  0.4945838  0.4946612  0.8808920  )
       189           Sn  tau( 189) = (  0.6556672  0.2086778  0.9989120  )
       190           Sn  tau( 190) = (  0.5587208  0.5885917  0.0655966  )
       191           Sn  tau( 191) = (  0.4104633  0.3871568  0.9370840  )
       192           Sn  tau( 192) = (  0.6422037  0.5244719  0.8506140  )
       193           Sn  tau( 193) = (  0.4243074  0.4537692  0.8956400  )
       194           Sn  tau( 194) = (  0.5118606  0.3811785  0.9868660  )
       195           Sn  tau( 195) = (  0.4480337  0.4726033  0.9520020  )
       196           Sn  tau( 196) = (  0.4384993  0.3514443  0.8339440  )
       197           Sn  tau( 197) = (  0.3937688  0.3270509  0.0631012  )
       198           Sn  tau( 198) = (  0.4702225  0.4423103  0.0692822  )
       199           Sn  tau( 199) = (  0.7844426  0.4888401  0.0955530  )
       200           Sn  tau( 200) = (  0.6756255  0.3679342  0.9531880  )

     number of k points=     1  Marzari-Vanderbilt smearing, width (Ry)=  0.0200
                       cart. coord. in units 2pi/alat
        k(    1) = (   0.0000000   0.0000000   0.0000000), wk =   2.0000000

                       cryst. coord.
        k(    1) = (   0.0000000   0.0000000   0.0000000), wk =   2.0000000

     Dense  grid: 41432170 G-vectors     FFT dimensions: ( 480, 576, 625)

     Smooth grid: 14648303 G-vectors     FFT dimensions: ( 360, 400, 432)

     Dynamical RAM for                 wfc:     104.77 MB

     Dynamical RAM for     wfc (w. buffer):     104.77 MB

     Dynamical RAM for           str. fact:       1.41 MB

     Dynamical RAM for           local pot:       0.00 MB

     Dynamical RAM for          nlocal pot:     224.51 MB

     Dynamical RAM for                qrad:      19.12 MB

     Dynamical RAM for          rho,v,vnew:      16.89 MB

     Dynamical RAM for               rhoin:       5.63 MB

     Dynamical RAM for            rho*nmix:      22.58 MB

     Dynamical RAM for           G-vectors:       5.54 MB

     Dynamical RAM for          h,s,v(r/c):       5.27 MB

     Dynamical RAM for          <psi|beta>:      46.14 MB

     Dynamical RAM for                 psi:     419.08 MB

     Dynamical RAM for                hpsi:     419.08 MB

     Dynamical RAM for                spsi:     419.08 MB

     Dynamical RAM for      wfcinit/wfcrot:     298.68 MB

     Dynamical RAM for           addusdens:     544.66 MB

     Dynamical RAM for          addusforce:    1107.74 MB

     Dynamical RAM for         addusstress:     283.62 MB

     Estimated static dynamical RAM per process >     424.36 MB

     Estimated max dynamical RAM per process >       1.69 GB

     Estimated total dynamical RAM >     758.19 GB

     Initial potential from superposition of free atoms

     starting charge 2599.99167, renormalised to 2800.00000

     negative rho (up, down):  1.810E-01 0.000E+00
     Starting wfcs are 1800 atomic wfcs

     total cpu time spent up to now is      107.2 secs

     Self-consistent Calculation

     iteration #  1     ecut=    50.00 Ry     beta= 0.40
     Davidson diagonalization with overlap
     ethr =  1.00E-02,  avg # of iterations = 10.0

     negative rho (up, down):  2.074E+00 0.000E+00

     total cpu time spent up to now is      780.0 secs

     total energy              =  -31819.33785568 Ry
     Harris-Foulkes estimate   =  -31886.29846318 Ry
     estimated scf accuracy    <     279.24519227 Ry

     iteration #  2     ecut=    50.00 Ry     beta= 0.40
     Davidson diagonalization with overlap
     ethr =  9.97E-03,  avg # of iterations =  1.0

     negative rho (up, down):  7.238E+00 0.000E+00

     total cpu time spent up to now is     1079.3 secs

     total energy              =  -31745.81793173 Ry
     Harris-Foulkes estimate   =  -31825.36734984 Ry
     estimated scf accuracy    <     140.34303600 Ry

     iteration #  3     ecut=    50.00 Ry     beta= 0.40
     Davidson diagonalization with overlap
     ethr =  5.01E-03,  avg # of iterations =  3.0

     negative rho (up, down):  7.093E+00 0.000E+00

     total cpu time spent up to now is     1480.0 secs

     total energy              =  -31779.83788801 Ry
     Harris-Foulkes estimate   =  -31780.87929368 Ry
     estimated scf accuracy    <      19.14911585 Ry

     iteration #  4     ecut=    50.00 Ry     beta= 0.40
     Davidson diagonalization with overlap
     ethr =  6.84E-04,  avg # of iterations = 11.0

     negative rho (up, down):  7.532E+00 0.000E+00

     total cpu time spent up to now is     1854.6 secs

     total energy              =  -31780.70488234 Ry
     Harris-Foulkes estimate   =  -31780.40501698 Ry
     estimated scf accuracy    <      32.84381090 Ry

     iteration #  5     ecut=    50.00 Ry     beta= 0.40
     Davidson diagonalization with overlap
     ethr =  6.84E-04,  avg # of iterations =  4.0

     negative rho (up, down):  1.057E+01 0.000E+00

     total cpu time spent up to now is     2082.2 secs

     total energy              =  -31776.36472903 Ry
     Harris-Foulkes estimate   =  -31781.35140002 Ry
     estimated scf accuracy    <     101.21430656 Ry

     iteration #  6     ecut=    50.00 Ry     beta= 0.40
     Davidson diagonalization with overlap
     ethr =  6.84E-04,  avg # of iterations =  6.0

     negative rho (up, down):  1.192E+01 0.000E+00

     total cpu time spent up to now is     2300.7 secs

     total energy              =  -31778.05544970 Ry
     Harris-Foulkes estimate   =  -31778.44922957 Ry
     estimated scf accuracy    <       4.21869510 Ry

     iteration #  7     ecut=    50.00 Ry     beta= 0.40
     Davidson diagonalization with overlap
     ethr =  1.51E-04,  avg # of iterations = 11.0

     negative rho (up, down):  1.165E+01 0.000E+00

     total cpu time spent up to now is     2664.6 secs

     total energy              =  -31778.14709123 Ry
     Harris-Foulkes estimate   =  -31778.19627960 Ry
     estimated scf accuracy    <       1.65274370 Ry

     iteration #  8     ecut=    50.00 Ry     beta= 0.40
     Davidson diagonalization with overlap
     ethr =  5.90E-05,  avg # of iterations =  2.0

     negative rho (up, down):  9.951E+00 0.000E+00

     total cpu time spent up to now is     2882.5 secs

     total energy              =  -31777.85459810 Ry
     Harris-Foulkes estimate   =  -31778.16624749 Ry
     estimated scf accuracy    <       1.28833975 Ry

     iteration #  9     ecut=    50.00 Ry     beta= 0.40
     Davidson diagonalization with overlap
     ethr =  4.60E-05,  avg # of iterations = 14.0

     negative rho (up, down):  9.666E+00 0.000E+00

     total cpu time spent up to now is     3258.2 secs

     total energy              =  -31777.88626740 Ry
     Harris-Foulkes estimate   =  -31777.91853900 Ry
     estimated scf accuracy    <       0.45190075 Ry

     iteration # 10     ecut=    50.00 Ry     beta= 0.40
     Davidson diagonalization with overlap
     ethr =  1.61E-05,  avg # of iterations =  1.0

     negative rho (up, down):  7.623E+00 0.000E+00

     total cpu time spent up to now is     3510.3 secs

     total energy              =  -31777.78244929 Ry
     Harris-Foulkes estimate   =  -31777.88851947 Ry
     estimated scf accuracy    <       0.40756114 Ry

     iteration # 11     ecut=    50.00 Ry     beta= 0.40
     Davidson diagonalization with overlap
     ethr =  1.46E-05,  avg # of iterations = 19.0

     negative rho (up, down):  3.573E+00 0.000E+00

     total cpu time spent up to now is     3846.0 secs

     total energy              =  -31777.63862211 Ry
     Harris-Foulkes estimate   =  -31777.78742254 Ry
     estimated scf accuracy    <       0.27886517 Ry

     iteration # 12     ecut=    50.00 Ry     beta= 0.40
     Davidson diagonalization with overlap
     c_bands:  5 eigenvalues not converged
     ethr =  9.96E-06,  avg # of iterations = 20.0

     negative rho (up, down):  4.218E+00 0.000E+00

     total cpu time spent up to now is     4211.2 secs

     total energy              =  -31777.66488266 Ry
     Harris-Foulkes estimate   =  -31777.65343711 Ry
     estimated scf accuracy    <       0.13621314 Ry

     iteration # 13     ecut=    50.00 Ry     beta= 0.40
     Davidson diagonalization with overlap
     ethr =  4.86E-06,  avg # of iterations = 19.0

     negative rho (up, down):  1.939E+00 0.000E+00

     total cpu time spent up to now is     4476.0 secs

     total energy              =  -31777.60829975 Ry
     Harris-Foulkes estimate   =  -31777.66681538 Ry
     estimated scf accuracy    <       0.18529941 Ry

     iteration # 14     ecut=    50.00 Ry     beta= 0.40
     Davidson diagonalization with overlap
     ethr =  4.86E-06,  avg # of iterations = 35.0

     negative rho (up, down):  1.647E+00 0.000E+00

     total cpu time spent up to now is     5009.0 secs

     total energy              =  -31777.59862923 Ry
     Harris-Foulkes estimate   =  -31777.61323349 Ry
     estimated scf accuracy    <       0.07396557 Ry

     iteration # 15     ecut=    50.00 Ry     beta= 0.40
     Davidson diagonalization with overlap
     ethr =  2.64E-06,  avg # of iterations = 45.0

     negative rho (up, down):  1.392E+00 0.000E+00

     total cpu time spent up to now is     5683.8 secs

     total energy              =  -31777.59009452 Ry
     Harris-Foulkes estimate   =  -31777.59935704 Ry
     estimated scf accuracy    <       0.05244755 Ry

     iteration # 16     ecut=    50.00 Ry     beta= 0.40
     Davidson diagonalization with overlap
     c_bands:  1 eigenvalues not converged
     ethr =  1.87E-06,  avg # of iterations = 40.0

     negative rho (up, down):  1.266E+00 0.000E+00

     total cpu time spent up to now is     6212.1 secs

     total energy              =  -31777.57970971 Ry
     Harris-Foulkes estimate   =  -31777.59053586 Ry
     estimated scf accuracy    <       0.04075760 Ry

     iteration # 17     ecut=    50.00 Ry     beta= 0.40
     Davidson diagonalization with overlap
     ethr =  1.46E-06,  avg # of iterations = 25.0

     negative rho (up, down):  9.468E-01 0.000E+00

     total cpu time spent up to now is     6682.5 secs

     total energy              =  -31777.56113555 Ry
     Harris-Foulkes estimate   =  -31777.58054261 Ry
     estimated scf accuracy    <       0.02952532 Ry

     iteration # 18     ecut=    50.00 Ry     beta= 0.40
     Davidson diagonalization with overlap
     ethr =  1.05E-06,  avg # of iterations = 25.0

     negative rho (up, down):  8.428E-01 0.000E+00

     total cpu time spent up to now is     7285.8 secs

     total energy              =  -31777.55832216 Ry
     Harris-Foulkes estimate   =  -31777.56381390 Ry
     estimated scf accuracy    <       0.01387556 Ry

     iteration # 19     ecut=    50.00 Ry     beta= 0.40
     Davidson diagonalization with overlap
     ethr =  4.96E-07,  avg # of iterations = 29.0

     negative rho (up, down):  5.586E-01 0.000E+00

     total cpu time spent up to now is     7874.8 secs

     total energy              =  -31777.55495245 Ry
     Harris-Foulkes estimate   =  -31777.55870159 Ry
     estimated scf accuracy    <       0.00762421 Ry

     iteration # 20     ecut=    50.00 Ry     beta= 0.40
     Davidson diagonalization with overlap
     ethr =  2.72E-07,  avg # of iterations = 32.0

     negative rho (up, down):  3.695E-01 0.000E+00

     total cpu time spent up to now is     8431.3 secs

     total energy              =  -31777.55203926 Ry
     Harris-Foulkes estimate   =  -31777.55507784 Ry
     estimated scf accuracy    <       0.00437195 Ry

     iteration # 21     ecut=    50.00 Ry     beta= 0.40
     Davidson diagonalization with overlap
     c_bands:  1 eigenvalues not converged
     ethr =  1.56E-07,  avg # of iterations = 40.0

     negative rho (up, down):  2.952E-01 0.000E+00

     total cpu time spent up to now is     9056.7 secs

     total energy              =  -31777.55216109 Ry
     Harris-Foulkes estimate   =  -31777.55216593 Ry
     estimated scf accuracy    <       0.00141041 Ry

     iteration # 22     ecut=    50.00 Ry     beta= 0.40
     Davidson diagonalization with overlap
     c_bands:  4 eigenvalues not converged
     ethr =  5.04E-08,  avg # of iterations = 20.0

     negative rho (up, down):  1.672E-01 0.000E+00

     total cpu time spent up to now is     9468.8 secs

     total energy              =  -31777.55150246 Ry
     Harris-Foulkes estimate   =  -31777.55217289 Ry
     estimated scf accuracy    <       0.00102900 Ry

     iteration # 23     ecut=    50.00 Ry     beta= 0.40
     Davidson diagonalization with overlap
     ethr =  3.67E-08,  avg # of iterations = 27.0

     negative rho (up, down):  1.336E-01 0.000E+00

     total cpu time spent up to now is    10047.6 secs

     total energy              =  -31777.55160508 Ry
     Harris-Foulkes estimate   =  -31777.55155038 Ry
     estimated scf accuracy    <       0.00038119 Ry

     iteration # 24     ecut=    50.00 Ry     beta= 0.40
     Davidson diagonalization with overlap
     c_bands:  1 eigenvalues not converged
     ethr =  1.36E-08,  avg # of iterations = 20.0

     negative rho (up, down):  7.774E-02 0.000E+00

     total cpu time spent up to now is    10470.0 secs

     total energy              =  -31777.55164724 Ry
     Harris-Foulkes estimate   =  -31777.55160822 Ry
     estimated scf accuracy    <       0.00027129 Ry

     iteration # 25     ecut=    50.00 Ry     beta= 0.40
     Davidson diagonalization with overlap
     c_bands:  4 eigenvalues not converged
     ethr =  9.69E-09,  avg # of iterations = 20.0

     negative rho (up, down):  6.298E-02 0.000E+00

     total cpu time spent up to now is    10838.9 secs

     total energy              =  -31777.55163947 Ry
     Harris-Foulkes estimate   =  -31777.55165777 Ry
     estimated scf accuracy    <       0.00005939 Ry

     iteration # 26     ecut=    50.00 Ry     beta= 0.40
     Davidson diagonalization with overlap
     ethr =  2.12E-09,  avg # of iterations = 11.0

     negative rho (up, down):  4.777E-02 0.000E+00

     total cpu time spent up to now is    11144.7 secs

     total energy              =  -31777.55163278 Ry
     Harris-Foulkes estimate   =  -31777.55164093 Ry
     estimated scf accuracy    <       0.00003055 Ry

     iteration # 27     ecut=    50.00 Ry     beta= 0.40
     Davidson diagonalization with overlap
     ethr =  1.09E-09,  avg # of iterations =  2.0

     negative rho (up, down):  4.516E-02 0.000E+00

     total cpu time spent up to now is    11533.7 secs

     total energy              =  -31777.55163182 Ry
     Harris-Foulkes estimate   =  -31777.55163392 Ry
     estimated scf accuracy    <       0.00000797 Ry

     iteration # 28     ecut=    50.00 Ry     beta= 0.40
     Davidson diagonalization with overlap
     ethr =  2.84E-10,  avg # of iterations =  1.0

     negative rho (up, down):  4.343E-02 0.000E+00

     total cpu time spent up to now is    11983.4 secs

     total energy              =  -31777.55163147 Ry
     Harris-Foulkes estimate   =  -31777.55163198 Ry
     estimated scf accuracy    <       0.00000446 Ry

     iteration # 29     ecut=    50.00 Ry     beta= 0.40
     Davidson diagonalization with overlap
     ethr =  1.59E-10,  avg # of iterations =  2.0

     negative rho (up, down):  4.222E-02 0.000E+00

     total cpu time spent up to now is    12428.6 secs

     total energy              =  -31777.55163049 Ry
     Harris-Foulkes estimate   =  -31777.55163160 Ry
     estimated scf accuracy    <       0.00000221 Ry

     iteration # 30     ecut=    50.00 Ry     beta= 0.40
     Davidson diagonalization with overlap
     ethr =  7.89E-11,  avg # of iterations =  1.0

     negative rho (up, down):  4.135E-02 0.000E+00

     total cpu time spent up to now is    12843.5 secs

     total energy              =  -31777.55162992 Ry
     Harris-Foulkes estimate   =  -31777.55163051 Ry
     estimated scf accuracy    <       0.00000101 Ry

     iteration # 31     ecut=    50.00 Ry     beta= 0.40
     Davidson diagonalization with overlap
     ethr =  3.59E-11,  avg # of iterations =  2.0

     negative rho (up, down):  4.139E-02 0.000E+00

     total cpu time spent up to now is    13188.0 secs

     total energy              =  -31777.55162956 Ry
     Harris-Foulkes estimate   =  -31777.55162995 Ry
     estimated scf accuracy    <       0.00000027 Ry

     iteration # 32     ecut=    50.00 Ry     beta= 0.40
     Davidson diagonalization with overlap
     ethr =  9.81E-12,  avg # of iterations =  2.0

     negative rho (up, down):  4.161E-02 0.000E+00

     total cpu time spent up to now is    13626.0 secs

     total energy              =  -31777.55162932 Ry
     Harris-Foulkes estimate   =  -31777.55162957 Ry
     estimated scf accuracy    <       0.00000012 Ry

     iteration # 33     ecut=    50.00 Ry     beta= 0.40
     Davidson diagonalization with overlap
     ethr =  4.18E-12,  avg # of iterations =  2.0

     negative rho (up, down):  4.174E-02 0.000E+00

     total cpu time spent up to now is    13992.3 secs

     total energy              =  -31777.55162916 Ry
     Harris-Foulkes estimate   =  -31777.55162933 Ry
     estimated scf accuracy    <       0.00000005 Ry

     iteration # 34     ecut=    50.00 Ry     beta= 0.40
     Davidson diagonalization with overlap
     ethr =  1.62E-12,  avg # of iterations =  2.0

     negative rho (up, down):  4.181E-02 0.000E+00

     total cpu time spent up to now is    14390.0 secs

     total energy              =  -31777.55162898 Ry
     Harris-Foulkes estimate   =  -31777.55162916 Ry
     estimated scf accuracy    <       0.00000002 Ry

     iteration # 35     ecut=    50.00 Ry     beta= 0.40
     Davidson diagonalization with overlap
     ethr =  8.20E-13,  avg # of iterations =  2.0

     negative rho (up, down):  4.201E-02 0.000E+00

     total cpu time spent up to now is    14557.5 secs

     End of self-consistent calculation

          k = 0.0000 0.0000 0.0000 (****** PWs)   bands (ev):

   -24.9018 -24.8956 -24.8717 -24.8569 -24.8515 -24.8480 -24.8439 -24.8438
   -24.8431 -24.8386 -24.8365 -24.8359 -24.8357 -24.8340 -24.8311 -24.8279
   -24.8269 -24.8228 -24.8164 -24.8122 -24.8069 -24.8049 -24.8037 -24.8031
   -24.8004 -24.7990 -24.7958 -24.7947 -24.7947 -24.7930 -24.7883 -24.7864
   -24.7831 -24.7828 -24.7794 -24.7785 -24.7775 -24.7745 -24.7742 -24.7735
   -24.7702 -24.7701 -24.7696 -24.7685 -24.7680 -24.7662 -24.7645 -24.7639
   -24.7617 -24.7614 -24.7611 -24.7594 -24.7585 -24.7581 -24.7572 -24.7565
   -24.7547 -24.7542 -24.7526 -24.7522 -24.7516 -24.7497 -24.7490 -24.7481
   -24.7480 -24.7478 -24.7473 -24.7466 -24.7460 -24.7454 -24.7449 -24.7448
   -24.7442 -24.7437 -24.7411 -24.7406 -24.7405 -24.7393 -24.7390 -24.7382
   -24.7375 -24.7370 -24.7365 -24.7364 -24.7350 -24.7345 -24.7343 -24.7336
   -24.7331 -24.7329 -24.7322 -24.7318 -24.7316 -24.7312 -24.7304 -24.7299
   -24.7296 -24.7293 -24.7286 -24.7281 -24.7273 -24.7269 -24.7266 -24.7256
   -24.7251 -24.7243 -24.7240 -24.7236 -24.7230 -24.7225 -24.7213 -24.7209
   -24.7200 -24.7199 -24.7192 -24.7187 -24.7183 -24.7178 -24.7172 -24.7169
   -24.7164 -24.7160 -24.7154 -24.7151 -24.7145 -24.7140 -24.7135 -24.7131
   -24.7125 -24.7118 -24.7114 -24.7110 -24.7105 -24.7102 -24.7100 -24.7093
   -24.7091 -24.7082 -24.7081 -24.7076 -24.7072 -24.7068 -24.7065 -24.7052
   -24.7047 -24.7044 -24.7042 -24.7031 -24.7024 -24.7020 -24.7018 -24.7009
   -24.7008 -24.7000 -24.6998 -24.6993 -24.6991 -24.6985 -24.6979 -24.6973
   -24.6967 -24.6965 -24.6960 -24.6959 -24.6954 -24.6946 -24.6942 -24.6938
   -24.6937 -24.6933 -24.6928 -24.6922 -24.6919 -24.6915 -24.6913 -24.6905
   -24.6900 -24.6891 -24.6889 -24.6887 -24.6885 -24.6883 -24.6879 -24.6877
   -24.6875 -24.6871 -24.6868 -24.6861 -24.6861 -24.6851 -24.6850 -24.6848
   -24.6842 -24.6836 -24.6835 -24.6832 -24.6829 -24.6825 -24.6821 -24.6816
   -24.6810 -24.6805 -24.6801 -24.6796 -24.6792 -24.6788 -24.6779 -24.6778
   -24.6776 -24.6773 -24.6764 -24.6763 -24.6755 -24.6751 -24.6749 -24.6744
   -24.6741 -24.6738 -24.6735 -24.6727 -24.6725 -24.6720 -24.6713 -24.6711
   -24.6707 -24.6702 -24.6697 -24.6696 -24.6693 -24.6689 -24.6685 -24.6679
   -24.6675 -24.6668 -24.6666 -24.6660 -24.6658 -24.6655 -24.6651 -24.6646
   -24.6641 -24.6640 -24.6633 -24.6628 -24.6625 -24.6623 -24.6614 -24.6613
   -24.6609 -24.6602 -24.6600 -24.6590 -24.6584 -24.6582 -24.6576 -24.6572
   -24.6570 -24.6567 -24.6558 -24.6557 -24.6549 -24.6543 -24.6542 -24.6539
   -24.6534 -24.6530 -24.6527 -24.6524 -24.6520 -24.6519 -24.6512 -24.6511
   -24.6509 -24.6503 -24.6500 -24.6496 -24.6494 -24.6491 -24.6485 -24.6483
   -24.6478 -24.6475 -24.6469 -24.6464 -24.6463 -24.6459 -24.6454 -24.6450
   -24.6449 -24.6444 -24.6441 -24.6438 -24.6434 -24.6433 -24.6429 -24.6425
   -24.6420 -24.6417 -24.6412 -24.6410 -24.6408 -24.6405 -24.6403 -24.6396
   -24.6392 -24.6390 -24.6387 -24.6384 -24.6379 -24.6376 -24.6369 -24.6367
   -24.6365 -24.6360 -24.6358 -24.6358 -24.6351 -24.6348 -24.6340 -24.6338
   -24.6333 -24.6328 -24.6326 -24.6324 -24.6320 -24.6315 -24.6314 -24.6310
   -24.6309 -24.6307 -24.6300 -24.6296 -24.6293 -24.6286 -24.6282 -24.6279
   -24.6277 -24.6273 -24.6272 -24.6262 -24.6262 -24.6257 -24.6251 -24.6249
   -24.6247 -24.6243 -24.6237 -24.6235 -24.6233 -24.6226 -24.6225 -24.6221
   -24.6219 -24.6214 -24.6210 -24.6207 -24.6205 -24.6201 -24.6198 -24.6196
   -24.6194 -24.6188 -24.6186 -24.6181 -24.6178 -24.6173 -24.6171 -24.6169
   -24.6167 -24.6165 -24.6162 -24.6159 -24.6158 -24.6155 -24.6151 -24.6144
   -24.6143 -24.6139 -24.6135 -24.6131 -24.6126 -24.6120 -24.6117 -24.6116
   -24.6109 -24.6107 -24.6099 -24.6098 -24.6094 -24.6091 -24.6090 -24.6084
   -24.6082 -24.6081 -24.6074 -24.6072 -24.6065 -24.6058 -24.6057 -24.6054
   -24.6043 -24.6040 -24.6037 -24.6035 -24.6032 -24.6028 -24.6024 -24.6022
   -24.6019 -24.6016 -24.6011 -24.6006 -24.6000 -24.5997 -24.5994 -24.5992
   -24.5988 -24.5981 -24.5979 -24.5977 -24.5976 -24.5966 -24.5963 -24.5960
   -24.5958 -24.5956 -24.5952 -24.5949 -24.5944 -24.5944 -24.5939 -24.5936
   -24.5933 -24.5929 -24.5927 -24.5922 -24.5919 -24.5915 -24.5909 -24.5904
   -24.5898 -24.5892 -24.5888 -24.5886 -24.5883 -24.5882 -24.5876 -24.5873
   -24.5870 -24.5862 -24.5861 -24.5857 -24.5857 -24.5850 -24.5847 -24.5844
   -24.5836 -24.5834 -24.5831 -24.5827 -24.5826 -24.5822 -24.5816 -24.5814
   -24.5811 -24.5807 -24.5805 -24.5797 -24.5795 -24.5791 -24.5786 -24.5785
   -24.5782 -24.5776 -24.5775 -24.5770 -24.5767 -24.5763 -24.5762 -24.5758
   -24.5753 -24.5751 -24.5744 -24.5744 -24.5741 -24.5736 -24.5735 -24.5730
   -24.5728 -24.5725 -24.5720 -24.5715 -24.5714 -24.5709 -24.5703 -24.5698
   -24.5695 -24.5690 -24.5688 -24.5682 -24.5679 -24.5673 -24.5672 -24.5669
   -24.5666 -24.5663 -24.5660 -24.5659 -24.5648 -24.5645 -24.5637 -24.5634
   -24.5631 -24.5630 -24.5625 -24.5622 -24.5619 -24.5617 -24.5614 -24.5608
   -24.5607 -24.5602 -24.5597 -24.5592 -24.5589 -24.5586 -24.5582 -24.5578
   -24.5575 -24.5573 -24.5569 -24.5562 -24.5561 -24.5556 -24.5554 -24.5550
   -24.5549 -24.5544 -24.5540 -24.5535 -24.5529 -24.5526 -24.5525 -24.5519
   -24.5516 -24.5510 -24.5508 -24.5507 -24.5503 -24.5499 -24.5497 -24.5494
   -24.5490 -24.5485 -24.5480 -24.5474 -24.5472 -24.5469 -24.5466 -24.5461
   -24.5458 -24.5455 -24.5449 -24.5444 -24.5443 -24.5440 -24.5436 -24.5430
   -24.5423 -24.5420 -24.5416 -24.5414 -24.5409 -24.5405 -24.5402 -24.5399
   -24.5394 -24.5388 -24.5385 -24.5379 -24.5371 -24.5368 -24.5365 -24.5361
   -24.5359 -24.5356 -24.5351 -24.5345 -24.5338 -24.5337 -24.5332 -24.5328
   -24.5324 -24.5320 -24.5315 -24.5310 -24.5309 -24.5306 -24.5302 -24.5294
   -24.5289 -24.5285 -24.5276 -24.5273 -24.5270 -24.5267 -24.5265 -24.5265
   -24.5263 -24.5257 -24.5255 -24.5252 -24.5247 -24.5244 -24.5237 -24.5235
   -24.5226 -24.5225 -24.5222 -24.5219 -24.5218 -24.5212 -24.5210 -24.5204
   -24.5200 -24.5197 -24.5193 -24.5189 -24.5186 -24.5183 -24.5180 -24.5173
   -24.5170 -24.5168 -24.5163 -24.5155 -24.5149 -24.5148 -24.5142 -24.5136
   -24.5134 -24.5133 -24.5130 -24.5120 -24.5117 -24.5113 -24.5108 -24.5105
   -24.5102 -24.5098 -24.5094 -24.5089 -24.5086 -24.5082 -24.5079 -24.5075
   -24.5070 -24.5067 -24.5062 -24.5059 -24.5053 -24.5052 -24.5050 -24.5048
   -24.5044 -24.5040 -24.5036 -24.5033 -24.5029 -24.5026 -24.5026 -24.5020
   -24.5016 -24.5015 -24.5008 -24.5004 -24.4992 -24.4989 -24.4984 -24.4982
   -24.4976 -24.4973 -24.4970 -24.4964 -24.4961 -24.4957 -24.4952 -24.4951
   -24.4946 -24.4946 -24.4940 -24.4937 -24.4934 -24.4931 -24.4926 -24.4919
   -24.4917 -24.4913 -24.4909 -24.4906 -24.4905 -24.4902 -24.4899 -24.4897
   -24.4895 -24.4891 -24.4885 -24.4876 -24.4873 -24.4868 -24.4866 -24.4863
   -24.4856 -24.4852 -24.4847 -24.4840 -24.4835 -24.4833 -24.4830 -24.4828
   -24.4825 -24.4822 -24.4818 -24.4814 -24.4809 -24.4808 -24.4806 -24.4800
   -24.4794 -24.4793 -24.4790 -24.4788 -24.4783 -24.4781 -24.4775 -24.4773
   -24.4771 -24.4768 -24.4767 -24.4762 -24.4758 -24.4754 -24.4751 -24.4743
   -24.4741 -24.4730 -24.4725 -24.4722 -24.4717 -24.4712 -24.4708 -24.4706
   -24.4703 -24.4697 -24.4695 -24.4687 -24.4682 -24.4680 -24.4678 -24.4674
   -24.4668 -24.4664 -24.4660 -24.4658 -24.4649 -24.4645 -24.4640 -24.4634
   -24.4628 -24.4626 -24.4624 -24.4619 -24.4617 -24.4614 -24.4607 -24.4602
   -24.4600 -24.4597 -24.4591 -24.4588 -24.4585 -24.4581 -24.4578 -24.4573
   -24.4567 -24.4564 -24.4562 -24.4559 -24.4554 -24.4550 -24.4546 -24.4537
   -24.4531 -24.4529 -24.4524 -24.4520 -24.4514 -24.4511 -24.4508 -24.4505
   -24.4501 -24.4495 -24.4492 -24.4488 -24.4485 -24.4481 -24.4478 -24.4476
   -24.4474 -24.4466 -24.4463 -24.4457 -24.4454 -24.4448 -24.4442 -24.4439
   -24.4437 -24.4434 -24.4433 -24.4426 -24.4417 -24.4413 -24.4410 -24.4403
   -24.4400 -24.4393 -24.4387 -24.4381 -24.4381 -24.4374 -24.4371 -24.4367
   -24.4363 -24.4361 -24.4353 -24.4346 -24.4344 -24.4339 -24.4336 -24.4335
   -24.4331 -24.4325 -24.4320 -24.4310 -24.4301 -24.4298 -24.4295 -24.4292
   -24.4289 -24.4283 -24.4282 -24.4276 -24.4271 -24.4266 -24.4262 -24.4255
   -24.4252 -24.4249 -24.4243 -24.4238 -24.4237 -24.4232 -24.4229 -24.4226
   -24.4225 -24.4218 -24.4214 -24.4209 -24.4206 -24.4201 -24.4199 -24.4196
   -24.4190 -24.4181 -24.4177 -24.4169 -24.4163 -24.4159 -24.4149 -24.4147
   -24.4144 -24.4136 -24.4130 -24.4123 -24.4122 -24.4118 -24.4111 -24.4103
   -24.4101 -24.4098 -24.4095 -24.4083 -24.4080 -24.4077 -24.4066 -24.4059
   -24.4058 -24.4045 -24.4041 -24.4029 -24.4025 -24.4023 -24.4016 -24.4010
   -24.4007 -24.4000 -24.3994 -24.3985 -24.3980 -24.3975 -24.3965 -24.3960
   -24.3950 -24.3947 -24.3941 -24.3928 -24.3920 -24.3918 -24.3915 -24.3911
   -24.3902 -24.3891 -24.3888 -24.3883 -24.3875 -24.3870 -24.3858 -24.3854
   -24.3845 -24.3830 -24.3825 -24.3820 -24.3817 -24.3810 -24.3782 -24.3779
   -24.3770 -24.3769 -24.3756 -24.3754 -24.3753 -24.3745 -24.3735 -24.3724
   -24.3719 -24.3715 -24.3707 -24.3688 -24.3685 -24.3681 -24.3675 -24.3664
   -24.3660 -24.3652 -24.3635 -24.3633 -24.3613 -24.3607 -24.3601 -24.3588
   -24.3578 -24.3561 -24.3553 -24.3527 -24.3511 -24.3488 -24.3473 -24.3467
   -24.3466 -24.3461 -24.3445 -24.3431 -24.3426 -24.3401 -24.3391 -24.3382
   -24.3349 -24.3334 -24.3326 -24.3300 -24.3284 -24.3270 -24.3164 -24.3160
   -24.3105 -24.3061 -24.3015 -24.3008 -24.3001 -24.2982 -24.2921 -24.2907
   -24.2896 -24.2879 -24.2817 -24.2788 -24.2752 -24.2416 -24.2332 -24.2034
   -13.8927 -13.7920 -13.7630 -13.6653 -13.5572 -13.5347 -13.5000 -13.4047
   -13.3789 -13.2831 -13.2527 -13.1815 -13.0927 -13.0488 -13.0257 -13.0002
   -12.9310 -12.8905 -12.8360 -12.7471 -12.7363 -12.7231 -12.6417 -12.5765
   -12.5043 -12.4897 -12.4740 -12.4163 -12.3769 -12.3230 -12.3047 -12.2529
   -12.2361 -12.1696 -12.0941 -12.0838 -12.0351 -12.0116 -11.9880 -11.9552
   -11.9248 -11.8881 -11.8811 -11.8567 -11.8024 -11.7611 -11.7416 -11.7118
   -11.6111 -11.5804 -11.5560 -11.5159 -11.4767 -11.4611 -11.4264 -11.4051
   -11.3783 -11.3047 -11.2890 -11.2754 -11.2364 -11.2207 -11.1751 -11.1402
   -11.1263 -11.0958 -11.0606 -11.0492 -11.0169 -10.9729 -10.9612 -10.9127
   -10.8932 -10.8579 -10.8367 -10.8068 -10.7743 -10.7558 -10.7425 -10.7276
   -10.6838 -10.6441 -10.5937 -10.5636 -10.5535 -10.5286 -10.4866 -10.4779
   -10.4297 -10.4187 -10.4044 -10.3674 -10.3304 -10.3157 -10.3121 -10.2513
   -10.2316 -10.2143 -10.1828 -10.1717 -10.1257 -10.0953 -10.0760 -10.0599
   -10.0472 -10.0238 -10.0145  -9.9581  -9.9382  -9.9169  -9.8940  -9.8736
    -9.8559  -9.8338  -9.7854  -9.7669  -9.7492  -9.7010  -9.6848  -9.6747
    -9.6610  -9.6051  -9.5840  -9.5655  -9.5474  -9.5279  -9.4883  -9.4495
    -9.4416  -9.3960  -9.3807  -9.3646  -9.3348  -9.3053  -9.3002  -9.2620
    -9.2514  -9.2402  -9.2055  -9.1913  -9.1793  -9.1517  -9.1327  -9.0929
    -9.0745  -9.0251  -9.0086  -8.9950  -8.9506  -8.9404  -8.9165  -8.9036
    -8.8601  -8.8411  -8.8102  -8.7837  -8.7683  -8.7410  -8.7291  -8.7004
    -8.6681  -8.6576  -8.6179  -8.5777  -8.5547  -8.5277  -8.5069  -8.5000
    -8.4629  -8.4506  -8.4249  -8.4098  -8.3809  -8.3613  -8.3349  -8.2968
    -8.2613  -8.2491  -8.2195  -8.1878  -8.1792  -8.1486  -8.1093  -8.0886
    -8.0616  -8.0377  -7.9954  -7.9597  -7.9351  -7.8837  -7.8409  -7.7887
    -7.7530  -7.7408  -7.6878  -7.6805  -7.6221  -7.5532  -7.5388  -7.5114
    -6.6364  -6.6044  -6.5809  -6.5367  -6.5045  -6.4962  -6.4815  -6.4144
    -6.4051  -6.3801  -6.3730  -6.3414  -6.3317  -6.3185  -6.2915  -6.2808
    -6.2499  -6.2333  -6.2187  -6.2075  -6.1898  -6.1776  -6.1380  -6.1114
    -6.0987  -6.0734  -6.0548  -6.0489  -6.0433  -6.0074  -5.9887  -5.9710
    -5.9684  -5.9547  -5.9351  -5.9207  -5.8885  -5.8806  -5.8607  -5.8450
    -5.8291  -5.7904  -5.7784  -5.7631  -5.7539  -5.7364  -5.7345  -5.7034
    -5.6827  -5.6801  -5.6412  -5.6201  -5.6120  -5.6031  -5.5924  -5.5830
    -5.5595  -5.5418  -5.5288  -5.5149  -5.4758  -5.4709  -5.4585  -5.4414
    -5.4298  -5.4081  -5.3838  -5.3632  -5.3443  -5.3328  -5.3304  -5.3097
    -5.2973  -5.2952  -5.2495  -5.2292  -5.2187  -5.2110  -5.1999  -5.1695
    -5.1570  -5.1382  -5.1249  -5.0966  -5.0809  -5.0635  -5.0419  -5.0350
    -5.0262  -5.0048  -4.9712  -4.9617  -4.9524  -4.9300  -4.9208  -4.9121
    -4.8974  -4.8673  -4.8563  -4.8386  -4.8317  -4.8198  -4.7967  -4.7857
    -4.7416  -4.7303  -4.7169  -4.7070  -4.6830  -4.6778  -4.6679  -4.6653
    -4.6455  -4.6376  -4.5977  -4.5776  -4.5655  -4.5554  -4.5354  -4.5086
    -4.4969  -4.4865  -4.4648  -4.4573  -4.4397  -4.4266  -4.4187  -4.4101
    -4.3896  -4.3712  -4.3559  -4.3197  -4.3151  -4.2762  -4.2722  -4.2454
    -4.2315  -4.2266  -4.2182  -4.2011  -4.1774  -4.1495  -4.1269  -4.1132
    -4.1091  -4.0898  -4.0707  -4.0637  -4.0530  -4.0207  -4.0002  -3.9889
    -3.9853  -3.9683  -3.9563  -3.9481  -3.9236  -3.8981  -3.8852  -3.8717
    -3.8398  -3.8214  -3.8094  -3.7995  -3.7801  -3.7598  -3.7504  -3.7292
    -3.7066  -3.7019  -3.6793  -3.6748  -3.6444  -3.6330  -3.6135  -3.6022
    -3.5772  -3.5675  -3.5447  -3.5299  -3.5085  -3.5021  -3.4841  -3.4806
    -3.4677  -3.4427  -3.4241  -3.4004  -3.3959  -3.3831  -3.3807  -3.3532
    -3.3241  -3.3078  -3.2986  -3.2655  -3.2447  -3.2362  -3.2267  -3.2073
    -3.1901  -3.1766  -3.1575  -3.1441  -3.1355  -3.1165  -3.1152  -3.1051
    -3.0756  -3.0588  -3.0464  -3.0116  -2.9945  -2.9744  -2.9585  -2.9389
    -2.9276  -2.9252  -2.9179  -2.9060  -2.8925  -2.8746  -2.8512  -2.8459
    -2.8312  -2.8080  -2.7849  -2.7625  -2.7605  -2.7341  -2.7156  -2.6952
    -2.6883  -2.6849  -2.6611  -2.6599  -2.6407  -2.6257  -2.6111  -2.5970
    -2.5847  -2.5651  -2.5438  -2.5397  -2.5294  -2.5098  -2.4840  -2.4780
    -2.4575  -2.4490  -2.4274  -2.4040  -2.3764  -2.3730  -2.3639  -2.3455
    -2.3403  -2.3242  -2.3058  -2.2824  -2.2762  -2.2567  -2.2245  -2.2215
    -2.2032  -2.1819  -2.1562  -2.1407  -2.1330  -2.1161  -2.1100  -2.0957
    -2.0813  -2.0677  -2.0439  -2.0395  -2.0334  -2.0155  -1.9908  -1.9706
    -1.9678  -1.9557  -1.9316  -1.9270  -1.9113  -1.9025  -1.8774  -1.8442
    -1.8380  -1.8151  -1.8110  -1.8033  -1.7943  -1.7738  -1.7522  -1.7324
    -1.7217  -1.7181  -1.7131  -1.6819  -1.6608  -1.6537  -1.6414  -1.6218
    -1.6057  -1.5963  -1.5773  -1.5623  -1.5414  -1.5355  -1.5191  -1.5169
    -1.5071  -1.4965  -1.4510  -1.4335  -1.4237  -1.4134  -1.4017  -1.3787
    -1.3568  -1.3530  -1.3446  -1.3257  -1.3134  -1.2865  -1.2720  -1.2558
    -1.2476  -1.2319  -1.2240  -1.2119  -1.2062  -1.1752  -1.1593  -1.1434
    -1.1340  -1.1169  -1.1053  -1.0991  -1.0631  -1.0358  -1.0312  -1.0231
    -1.0064  -1.0026  -0.9789  -0.9736  -0.9562  -0.9392  -0.9187  -0.9139
    -0.9031  -0.8881  -0.8640  -0.8432  -0.8400  -0.8369  -0.8166  -0.8051
    -0.7971  -0.7832  -0.7696  -0.7404  -0.7183  -0.7113  -0.6993  -0.6857
    -0.6714  -0.6533  -0.6401  -0.6252  -0.6107  -0.5959  -0.5754  -0.5637
    -0.5545  -0.5472  -0.5200  -0.5132  -0.5063  -0.4870  -0.4818  -0.4715
    -0.4540  -0.4482  -0.4241  -0.4116  -0.3927  -0.3826  -0.3689  -0.3528
    -0.3402  -0.3208  -0.3119  -0.3018  -0.2977  -0.2772  -0.2615  -0.2510
    -0.2409  -0.2356  -0.2132  -0.1956  -0.1872  -0.1560  -0.1459  -0.1356
    -0.1262  -0.1091  -0.0927  -0.0713  -0.0703  -0.0488  -0.0358  -0.0285
    -0.0154  -0.0079   0.0076   0.0301   0.0362   0.0500   0.0587   0.0732
     0.0842   0.0880   0.0992   0.1092   0.1248   0.1399   0.1562   0.1665
     0.1784   0.1873   0.2100   0.2170   0.2215   0.2289   0.2458   0.2566
     0.2640   0.2899   0.2995   0.3181   0.3206   0.3256   0.3562   0.3685
     0.3772   0.3940   0.4068   0.4144   0.4207   0.4352   0.4496   0.4556
     0.4929   0.4987   0.5028   0.5148   0.5219   0.5288   0.5352   0.5464
     0.5531   0.5585   0.5683   0.5697   0.5823   0.5872   0.5907   0.6055
     0.6112   0.6158   0.6270   0.6385   0.6442   0.6498   0.6566   0.6617

     occupation numbers 
     1.0000   1.0000   1.0000   1.0000   1.0000   1.0000   1.0000   1.0000
     1.0000   1.0000   1.0000   1.0000   1.0000   1.0000   1.0000   1.0000
     1.0000   1.0000   1.0000   1.0000   1.0000   1.0000   1.0000   1.0000
     1.0000   1.0000   1.0000   1.0000   1.0000   1.0000   1.0000   1.0000
     1.0000   1.0000   1.0000   1.0000   1.0000   1.0000   1.0000   1.0000
     1.0000   1.0000   1.0000   1.0000   1.0000   1.0000   1.0000   1.0000
     1.0000   1.0000   1.0000   1.0000   1.0000   1.0000   1.0000   1.0000
     1.0000   1.0000   1.0000   1.0000   1.0000   1.0000   1.0000   1.0000
     1.0000   1.0000   1.0000   1.0000   1.0000   1.0000   1.0000   1.0000
     1.0000   1.0000   1.0000   1.0000   1.0000   1.0000   1.0000   1.0000
     1.0000   1.0000   1.0000   1.0000   1.0000   1.0000   1.0000   1.0000
     1.0000   1.0000   1.0000   1.0000   1.0000   1.0000   1.0000   1.0000
     1.0000   1.0000   1.0000   1.0000   1.0000   1.0000   1.0000   1.0000
     1.0000   1.0000   1.0000   1.0000   1.0000   1.0000   1.0000   1.0000
     1.0000   1.0000   1.0000   1.0000   1.0000   1.0000   1.0000   1.0000
     1.0000   1.0000   1.0000   1.0000   1.0000   1.0000   1.0000   1.0000
     1.0000   1.0000   1.0000   1.0000   1.0000   1.0000   1.0000   1.0000
     1.0000   1.0000   1.0000   1.0000   1.0000   1.0000   1.0000   1.0000
     1.0000   1.0000   1.0000   1.0000   1.0000   1.0000   1.0000   1.0000
     1.0000   1.0000   1.0000   1.0000   1.0000   1.0000   1.0000   1.0000
     1.0000   1.0000   1.0000   1.0000   1.0000   1.0000   1.0000   1.0000
     1.0000   1.0000   1.0000   1.0000   1.0000   1.0000   1.0000   1.0000
     1.0000   1.0000   1.0000   1.0000   1.0000   1.0000   1.0000   1.0000
     1.0000   1.0000   1.0000   1.0000   1.0000   1.0000   1.0000   1.0000
     1.0000   1.0000   1.0000   1.0000   1.0000   1.0000   1.0000   1.0000
     1.0000   1.0000   1.0000   1.0000   1.0000   1.0000   1.0000   1.0000
     1.0000   1.0000   1.0000   1.0000   1.0000   1.0000   1.0000   1.0000
     1.0000   1.0000   1.0000   1.0000   1.0000   1.0000   1.0000   1.0000
     1.0000   1.0000   1.0000   1.0000   1.0000   1.0000   1.0000   1.0000
     1.0000   1.0000   1.0000   1.0000   1.0000   1.0000   1.0000   1.0000
     1.0000   1.0000   1.0000   1.0000   1.0000   1.0000   1.0000   1.0000
     1.0000   1.0000   1.0000   1.0000   1.0000   1.0000   1.0000   1.0000
     1.0000   1.0000   1.0000   1.0000   1.0000   1.0000   1.0000   1.0000
     1.0000   1.0000   1.0000   1.0000   1.0000   1.0000   1.0000   1.0000
     1.0000   1.0000   1.0000   1.0000   1.0000   1.0000   1.0000   1.0000
     1.0000   1.0000   1.0000   1.0000   1.0000   1.0000   1.0000   1.0000
     1.0000   1.0000   1.0000   1.0000   1.0000   1.0000   1.0000   1.0000
     1.0000   1.0000   1.0000   1.0000   1.0000   1.0000   1.0000   1.0000
     1.0000   1.0000   1.0000   1.0000   1.0000   1.0000   1.0000   1.0000
     1.0000   1.0000   1.0000   1.0000   1.0000   1.0000   1.0000   1.0000
     1.0000   1.0000   1.0000   1.0000   1.0000   1.0000   1.0000   1.0000
     1.0000   1.0000   1.0000   1.0000   1.0000   1.0000   1.0000   1.0000
     1.0000   1.0000   1.0000   1.0000   1.0000   1.0000   1.0000   1.0000
     1.0000   1.0000   1.0000   1.0000   1.0000   1.0000   1.0000   1.0000
     1.0000   1.0000   1.0000   1.0000   1.0000   1.0000   1.0000   1.0000
     1.0000   1.0000   1.0000   1.0000   1.0000   1.0000   1.0000   1.0000
     1.0000   1.0000   1.0000   1.0000   1.0000   1.0000   1.0000   1.0000
     1.0000   1.0000   1.0000   1.0000   1.0000   1.0000   1.0000   1.0000
     1.0000   1.0000   1.0000   1.0000   1.0000   1.0000   1.0000   1.0000
     1.0000   1.0000   1.0000   1.0000   1.0000   1.0000   1.0000   1.0000
     1.0000   1.0000   1.0000   1.0000   1.0000   1.0000   1.0000   1.0000
     1.0000   1.0000   1.0000   1.0000   1.0000   1.0000   1.0000   1.0000
     1.0000   1.0000   1.0000   1.0000   1.0000   1.0000   1.0000   1.0000
     1.0000   1.0000   1.0000   1.0000   1.0000   1.0000   1.0000   1.0000
     1.0000   1.0000   1.0000   1.0000   1.0000   1.0000   1.0000   1.0000
     1.0000   1.0000   1.0000   1.0000   1.0000   1.0000   1.0000   1.0000
     1.0000   1.0000   1.0000   1.0000   1.0000   1.0000   1.0000   1.0000
     1.0000   1.0000   1.0000   1.0000   1.0000   1.0000   1.0000   1.0000
     1.0000   1.0000   1.0000   1.0000   1.0000   1.0000   1.0000   1.0000
     1.0000   1.0000   1.0000   1.0000   1.0000   1.0000   1.0000   1.0000
     1.0000   1.0000   1.0000   1.0000   1.0000   1.0000   1.0000   1.0000
     1.0000   1.0000   1.0000   1.0000   1.0000   1.0000   1.0000   1.0000
     1.0000   1.0000   1.0000   1.0000   1.0000   1.0000   1.0000   1.0000
     1.0000   1.0000   1.0000   1.0000   1.0000   1.0000   1.0000   1.0000
     1.0000   1.0000   1.0000   1.0000   1.0000   1.0000   1.0000   1.0000
     1.0000   1.0000   1.0000   1.0000   1.0000   1.0000   1.0000   1.0000
     1.0000   1.0000   1.0000   1.0000   1.0000   1.0000   1.0000   1.0000
     1.0000   1.0000   1.0000   1.0000   1.0000   1.0000   1.0000   1.0000
     1.0000   1.0000   1.0000   1.0000   1.0000   1.0000   1.0000   1.0000
     1.0000   1.0000   1.0000   1.0000   1.0000   1.0000   1.0000   1.0000
     1.0000   1.0000   1.0000   1.0000   1.0000   1.0000   1.0000   1.0000
     1.0000   1.0000   1.0000   1.0000   1.0000   1.0000   1.0000   1.0000
     1.0000   1.0000   1.0000   1.0000   1.0000   1.0000   1.0000   1.0000
     1.0000   1.0000   1.0000   1.0000   1.0000   1.0000   1.0000   1.0000
     1.0000   1.0000   1.0000   1.0000   1.0000   1.0000   1.0000   1.0000
     1.0000   1.0000   1.0000   1.0000   1.0000   1.0000   1.0000   1.0000
     1.0000   1.0000   1.0000   1.0000   1.0000   1.0000   1.0000   1.0000
     1.0000   1.0000   1.0000   1.0000   1.0000   1.0000   1.0000   1.0000
     1.0000   1.0000   1.0000   1.0000   1.0000   1.0000   1.0000   1.0000
     1.0000   1.0000   1.0000   1.0000   1.0000   1.0000   1.0000   1.0000
     1.0000   1.0000   1.0000   1.0000   1.0000   1.0000   1.0000   1.0000
     1.0000   1.0000   1.0000   1.0000   1.0000   1.0000   1.0000   1.0000
     1.0000   1.0000   1.0000   1.0000   1.0000   1.0000   1.0000   1.0000
     1.0000   1.0000   1.0000   1.0000   1.0000   1.0000   1.0000   1.0000
     1.0000   1.0000   1.0000   1.0000   1.0000   1.0000   1.0000   1.0000
     1.0000   1.0000   1.0000   1.0000   1.0000   1.0000   1.0000   1.0000
     1.0000   1.0000   1.0000   1.0000   1.0000   1.0000   1.0000   1.0000
     1.0000   1.0000   1.0000   1.0000   1.0000   1.0000   1.0000   1.0000
     1.0000   1.0000   1.0000   1.0000   1.0000   1.0000   1.0000   1.0000
     1.0000   1.0000   1.0000   1.0000   1.0000   1.0000   1.0000   1.0000
     1.0000   1.0000   1.0000   1.0000   1.0000   1.0000   1.0000   1.0000
     1.0000   1.0000   1.0000   1.0000   1.0000   1.0000   1.0000   1.0000
     1.0000   1.0000   1.0000   1.0000   1.0000   1.0000   1.0000   1.0000
     1.0000   1.0000   1.0000   1.0000   1.0000   1.0000   1.0000   1.0000
     1.0000   1.0000   1.0000   1.0000   1.0000   1.0000   1.0000   1.0000
     1.0000   1.0000   1.0000   1.0000   1.0000   1.0000   1.0000   1.0000
     1.0000   1.0000   1.0000   1.0000   1.0000   1.0000   1.0000   1.0000
     1.0000   1.0000   1.0000   1.0000   1.0000   1.0000   1.0000   1.0000
     1.0000   1.0000   1.0000   1.0000   1.0000   1.0000   1.0000   1.0000
     1.0000   1.0000   1.0000   1.0000   1.0000   1.0000   1.0000   1.0000
     1.0000   1.0000   1.0000   1.0000   1.0000   1.0000   1.0000   1.0000
     1.0000   1.0000   1.0000   1.0000   1.0000   1.0000   1.0000   1.0000
     1.0000   1.0000   1.0000   1.0000   1.0000   1.0000   1.0000   1.0000
     1.0000   1.0000   1.0000   1.0000   1.0000   1.0000   1.0000   1.0000
     1.0000   1.0000   1.0000   1.0000   1.0000   1.0000   1.0000   1.0000
     1.0000   1.0000   1.0000   1.0000   1.0000   1.0000   1.0000   1.0000
     1.0000   1.0000   1.0000   1.0000   1.0000   1.0000   1.0000   1.0000
     1.0000   1.0000   1.0000   1.0000   1.0000   1.0000   1.0000   1.0000
     1.0000   1.0000   1.0000   1.0000   1.0000   1.0000   1.0000   1.0000
     1.0000   1.0000   1.0000   1.0000   1.0000   1.0000   1.0000   1.0000
     1.0000   1.0000   1.0000   1.0000   1.0000   1.0000   1.0000   1.0000
     1.0000   1.0000   1.0000   1.0000   1.0000   1.0000   1.0000   1.0000
     1.0000   1.0000   1.0000   1.0000   1.0000   1.0000   1.0000   1.0000
     1.0000   1.0000   1.0000   1.0000   1.0000   1.0000   1.0000   1.0000
     1.0000   1.0000   1.0000   1.0000   1.0000   1.0000   1.0000   1.0000
     1.0000   1.0000   1.0000   1.0000   1.0000   1.0000   1.0000   1.0000
     1.0000   1.0000   1.0000   1.0000   1.0000   1.0000   1.0000   1.0000
     1.0000   1.0000   1.0000   1.0000   1.0000   1.0000   1.0000   1.0000
     1.0000   1.0000   1.0000   1.0000   1.0000   1.0000   1.0000   1.0000
     1.0000   1.0000   1.0000   1.0000   1.0000   1.0000   1.0000   1.0000
     1.0000   1.0000   1.0000   1.0000   1.0000   1.0000   1.0000   1.0000
     1.0000   1.0000   1.0000   1.0000   1.0000   1.0000   1.0000   1.0000
     1.0000   1.0000   1.0000   1.0000   1.0000   1.0000   1.0000   1.0000
     1.0000   1.0000   1.0000   1.0000   1.0000   1.0000   1.0000   1.0000
     1.0000   1.0000   1.0000   1.0000   1.0000   1.0000   1.0000   1.0000
     1.0000   1.0000   1.0000   1.0000   1.0000   1.0000   1.0000   1.0000
     1.0000   1.0000   1.0000   1.0000   1.0000   1.0000   1.0000   1.0000
     1.0000   1.0000   1.0000   1.0000   1.0000   1.0000   1.0000   1.0000
     1.0000   1.0000   1.0000   1.0000   1.0000   1.0000   1.0000   1.0000
     1.0000   1.0000   1.0000   1.0000   1.0000   1.0000   1.0000   1.0000
     1.0000   1.0000   1.0000   1.0000   1.0000   1.0000   1.0000   1.0000
     1.0000   1.0000   1.0000   1.0000   1.0000   1.0000   1.0000   1.0000
     1.0000   1.0000   1.0000   1.0000   1.0000   1.0000   1.0000   1.0000
     1.0000   1.0000   1.0000   1.0000   1.0000   1.0000   1.0000   1.0000
     1.0000   1.0000   1.0000   1.0000   1.0000   1.0000   1.0000   1.0000
     1.0000   1.0000   1.0000   1.0000   1.0000   1.0000   1.0000   1.0000
     1.0000   1.0000   1.0000   1.0000   1.0000   1.0000   1.0000   1.0000
     1.0000   1.0000   1.0000   1.0000   1.0000   1.0000   1.0000   1.0000
     1.0000   1.0000   1.0000   1.0000   1.0000   1.0000   1.0000   1.0000
     1.0000   1.0000   1.0000   1.0000   1.0000   1.0000   1.0000   1.0000
     1.0000   1.0000   1.0000   1.0000   1.0000   1.0000   1.0000   1.0000
     1.0000   1.0000   1.0000   1.0000   1.0000   1.0000   1.0000   1.0000
     1.0000   1.0000   1.0000   1.0000   1.0000   1.0000   1.0000   1.0000
     1.0000   1.0000   1.0000   1.0000   1.0000   1.0000   1.0000   1.0000
     1.0000   1.0000   1.0000   1.0000   1.0000   1.0000   1.0000   1.0000
     1.0000   1.0000   1.0000   1.0000   1.0000   1.0000   1.0000   1.0000
     1.0000   1.0000   1.0000   1.0000   1.0000   1.0000   1.0000   1.0000
     1.0000   1.0000   1.0000   1.0000   1.0000   1.0000   1.0000   1.0000
     1.0000   1.0000   1.0000   1.0000   1.0000   1.0000   1.0000   1.0000
     1.0000   1.0000   1.0000   1.0000   1.0000   1.0000   1.0000   1.0000
     1.0000   1.0000   1.0000   1.0000   1.0000   1.0000   1.0000   1.0000
     1.0000   1.0000   1.0000   1.0000   1.0000   1.0000   1.0000   1.0000
     1.0000   1.0000   1.0000   1.0000   1.0000   1.0000   1.0000   1.0000
     1.0000   1.0000   1.0000   1.0000   1.0000   1.0000   1.0000   1.0000
     1.0000   1.0000   1.0000   1.0000   1.0000   1.0000   1.0000   1.0000
     1.0000   1.0000   1.0000   1.0000   1.0000   1.0000   1.0000   1.0000
     1.0000   1.0000   1.0000   1.0000   1.0000   1.0000   1.0000   1.0000
     1.0000   1.0000   1.0000   1.0000   1.0000   1.0000   1.0000   1.0000
     1.0000   1.0000   1.0000   1.0000   1.0000   1.0000   1.0000   1.0000
     1.0000   1.0000   1.0000   1.0000   1.0000   1.0000   1.0000   1.0000
     1.0000   1.0000   1.0000   1.0000   1.0000   1.0000   1.0000   1.0000
     1.0000   1.0000   1.0000   1.0000   1.0000   1.0000   1.0000   1.0000
     1.0000   1.0000   1.0000   1.0000   1.0000   1.0000   1.0000   1.0000
[...]
     atom   18 type  1   force =     0.00002374   -0.00003233   -0.00000191
     atom   19 type  1   force =    -0.00002316   -0.00001242    0.00000387
     atom   20 type  1   force =    -0.00001522    0.00002564   -0.00001038
     atom   21 type  1   force =     0.00002249    0.00000980   -0.00000071
     atom   22 type  1   force =    -0.00002580    0.00000657   -0.00000383
     atom   23 type  1   force =     0.00002394   -0.00000002   -0.00000626
     atom   24 type  1   force =     0.00000040   -0.00002058    0.00000117
     atom   25 type  1   force =    -0.00000269   -0.00000869   -0.00001333
     atom   26 type  1   force =    -0.00001876   -0.00001635   -0.00000050
     atom   27 type  1   force =     0.00001363   -0.00000613   -0.00002098
     atom   28 type  1   force =    -0.00001710   -0.00001884   -0.00000125
     atom   29 type  1   force =    -0.00000402   -0.00001810   -0.00001953
     atom   30 type  1   force =    -0.00000716    0.00003249    0.00000857
     atom   31 type  1   force =     0.00002249   -0.00002371    0.00000611
     atom   32 type  1   force =    -0.00002830   -0.00001696   -0.00000271
     atom   33 type  1   force =     0.00000335   -0.00002478   -0.00000978
     atom   34 type  1   force =     0.00001623   -0.00002693   -0.00001329
     atom   35 type  1   force =     0.00000324   -0.00000839    0.00002424
     atom   36 type  1   force =     0.00000416   -0.00002796    0.00000830
     atom   37 type  1   force =     0.00000140   -0.00000200    0.00001823
     atom   38 type  1   force =    -0.00000156   -0.00001025    0.00000383
     atom   39 type  1   force =     0.00003075   -0.00000786    0.00000177
     atom   40 type  1   force =    -0.00000947   -0.00000258    0.00001886
     atom   41 type  1   force =     0.00000216    0.00000016    0.00001123
     atom   42 type  1   force =     0.00002355   -0.00001500    0.00000719
     atom   43 type  1   force =    -0.00002053    0.00002506    0.00000026
     atom   44 type  1   force =    -0.00003351    0.00000689   -0.00000105
     atom   45 type  1   force =     0.00000721   -0.00000920   -0.00001225
     atom   46 type  1   force =    -0.00000282   -0.00001990    0.00001027
     atom   47 type  1   force =    -0.00001661    0.00001339   -0.00001808
     atom   48 type  1   force =    -0.00001593    0.00000223    0.00000212
     atom   49 type  1   force =    -0.00000316   -0.00002060   -0.00001393
     atom   50 type  1   force =     0.00000893    0.00001539    0.00000596
     atom   51 type  1   force =     0.00001220    0.00002927    0.00000730
     atom   52 type  1   force =    -0.00002630    0.00001570   -0.00000180
     atom   53 type  1   force =    -0.00000423    0.00001083    0.00000620
     atom   54 type  1   force =     0.00000429   -0.00000435    0.00002337
     atom   55 type  1   force =    -0.00003168   -0.00001295   -0.00000687
     atom   56 type  1   force =    -0.00000498    0.00001409    0.00000204
     atom   57 type  1   force =     0.00000070    0.00001811    0.00002526
     atom   58 type  1   force =    -0.00000493   -0.00000738    0.00001048
     atom   59 type  1   force =     0.00000664    0.00000426    0.00000776
     atom   60 type  1   force =    -0.00000041   -0.00000544    0.00000498
     atom   61 type  1   force =     0.00000553   -0.00000814    0.00002739
     atom   62 type  1   force =    -0.00002359    0.00000972    0.00000393
     atom   63 type  1   force =     0.00001514   -0.00000285   -0.00001327
     atom   64 type  1   force =     0.00002477   -0.00000483   -0.00000731
     atom   65 type  1   force =    -0.00003168    0.00000154    0.00000444
     atom   66 type  1   force =    -0.00000193   -0.00002774   -0.00000677
     atom   67 type  1   force =     0.00000506   -0.00002234    0.00000485
     atom   68 type  1   force =     0.00001658    0.00000679    0.00001068
     atom   69 type  1   force =     0.00004198   -0.00000355   -0.00000557
     atom   70 type  1   force =    -0.00001082    0.00000814   -0.00002488
     atom   71 type  1   force =    -0.00003473   -0.00000042    0.00000115
     atom   72 type  1   force =    -0.00004032   -0.00000950   -0.00000014
     atom   73 type  1   force =     0.00001252    0.00000260   -0.00002129
     atom   74 type  1   force =    -0.00000006   -0.00000088    0.00002300
     atom   75 type  1   force =     0.00000775   -0.00001929    0.00000212
     atom   76 type  1   force =     0.00000470    0.00001525   -0.00001220
     atom   77 type  1   force =     0.00001192   -0.00000773   -0.00002425
     atom   78 type  1   force =    -0.00000061    0.00000329    0.00002386
     atom   79 type  1   force =     0.00001206   -0.00000533   -0.00001986
     atom   80 type  1   force =     0.00000370    0.00000085    0.00002211
     atom   81 type  1   force =    -0.00002277    0.00000204   -0.00001720
     atom   82 type  1   force =    -0.00000448   -0.00000180   -0.00001002
     atom   83 type  1   force =     0.00000502   -0.00002663   -0.00000065
     atom   84 type  1   force =    -0.00000004    0.00001126   -0.00002341
     atom   85 type  1   force =     0.00000195    0.00001058    0.00002754
     atom   86 type  1   force =     0.00001133    0.00001116    0.00000207
     atom   87 type  1   force =    -0.00001462   -0.00002238   -0.00000569
     atom   88 type  1   force =     0.00003676   -0.00001186   -0.00000675
     atom   89 type  1   force =    -0.00000177   -0.00002707    0.00000217
     atom   90 type  1   force =     0.00000061   -0.00002789    0.00000313
     atom   91 type  1   force =    -0.00001222   -0.00001107    0.00000811
     atom   92 type  1   force =    -0.00000625    0.00000266    0.00001446
     atom   93 type  1   force =    -0.00000266    0.00003932   -0.00000061
     atom   94 type  1   force =    -0.00000773    0.00001924    0.00000331
     atom   95 type  1   force =     0.00000749   -0.00001553   -0.00002232
     atom   96 type  1   force =     0.00001458   -0.00002549    0.00000816
     atom   97 type  1   force =    -0.00001357    0.00003779   -0.00000264
     atom   98 type  1   force =    -0.00001017   -0.00000963   -0.00000415
     atom   99 type  1   force =    -0.00001631   -0.00001930   -0.00000536
     atom  100 type  1   force =    -0.00000451   -0.00001114   -0.00000425
     atom  101 type  1   force =     0.00000572   -0.00003139   -0.00000251
     atom  102 type  1   force =     0.00000195    0.00000887    0.00000037
     atom  103 type  1   force =    -0.00000549    0.00002915   -0.00000114
     atom  104 type  1   force =    -0.00002442   -0.00001343   -0.00000359
     atom  105 type  1   force =    -0.00000566   -0.00002181    0.00000126
     atom  106 type  1   force =     0.00000969   -0.00000796    0.00000933
     atom  107 type  1   force =     0.00000072    0.00001925    0.00000033
     atom  108 type  1   force =    -0.00000789    0.00002175   -0.00000077
     atom  109 type  1   force =     0.00002418   -0.00000175   -0.00001166
     atom  110 type  1   force =    -0.00002438    0.00000846    0.00001371
     atom  111 type  1   force =    -0.00000656    0.00001873   -0.00000327
     atom  112 type  1   force =    -0.00002792   -0.00001472   -0.00000791
     atom  113 type  1   force =    -0.00000432    0.00000127   -0.00000747
     atom  114 type  1   force =     0.00000473    0.00000663    0.00002409
     atom  115 type  1   force =    -0.00000368   -0.00002300    0.00000500
     atom  116 type  1   force =    -0.00002114   -0.00000158    0.00000889
     atom  117 type  1   force =    -0.00000715    0.00001145    0.00001907
     atom  118 type  1   force =     0.00002931   -0.00002287   -0.00000203
     atom  119 type  1   force =    -0.00000019    0.00001473   -0.00000121
     atom  120 type  1   force =     0.00000155    0.00002960    0.00001268
     atom  121 type  1   force =    -0.00000858    0.00003552    0.00000298
     atom  122 type  1   force =     0.00000980   -0.00001889    0.00001734
     atom  123 type  1   force =    -0.00002304    0.00002858    0.00000033
     atom  124 type  1   force =    -0.00000756   -0.00002659   -0.00000232
     atom  125 type  1   force =     0.00002172   -0.00001110    0.00000162
     atom  126 type  1   force =    -0.00002958    0.00000767   -0.00000334
     atom  127 type  1   force =    -0.00000593   -0.00000688    0.00001935
     atom  128 type  1   force =    -0.00000850    0.00002927   -0.00001149
     atom  129 type  1   force =    -0.00002799    0.00000856    0.00000106
     atom  130 type  1   force =     0.00001030    0.00000124   -0.00001609
     atom  131 type  1   force =     0.00000567    0.00003357    0.00000436
     atom  132 type  1   force =    -0.00000064    0.00001627    0.00000670
     atom  133 type  1   force =     0.00001030    0.00003058    0.00001426
     atom  134 type  1   force =    -0.00003220   -0.00000478   -0.00000453
     atom  135 type  1   force =    -0.00003655   -0.00000767    0.00000106
     atom  136 type  1   force =    -0.00001556   -0.00001314    0.00000014
     atom  137 type  1   force =     0.00002661   -0.00002430   -0.00000922
     atom  138 type  1   force =     0.00001257    0.00003573    0.00000467
     atom  139 type  1   force =    -0.00000177    0.00001579   -0.00000024
     atom  140 type  1   force =     0.00001466   -0.00001406   -0.00000367
     atom  141 type  1   force =     0.00001081   -0.00002089   -0.00001977
     atom  142 type  1   force =    -0.00000239    0.00000798    0.00002409
     atom  143 type  1   force =     0.00001899   -0.00000429    0.00001482
     atom  144 type  1   force =     0.00000129    0.00003622   -0.00000074
     atom  145 type  1   force =    -0.00001286   -0.00000682    0.00000469
     atom  146 type  1   force =     0.00001049    0.00000397   -0.00000340
     atom  147 type  1   force =    -0.00001208   -0.00000965    0.00000785
     atom  148 type  1   force =    -0.00000006    0.00001264    0.00001079
     atom  149 type  1   force =    -0.00000989   -0.00002434    0.00000253
     atom  150 type  1   force =    -0.00001616   -0.00001344    0.00000847
     atom  151 type  1   force =     0.00001072   -0.00000038   -0.00001992
     atom  152 type  1   force =    -0.00000863   -0.00001912    0.00000125
     atom  153 type  1   force =    -0.00002274   -0.00001179    0.00000521
     atom  154 type  1   force =     0.00000581    0.00001881    0.00001443
     atom  155 type  1   force =     0.00000635    0.00000657    0.00000021
     atom  156 type  1   force =    -0.00000334    0.00002129   -0.00000121
     atom  157 type  1   force =    -0.00000089   -0.00002205    0.00000431
     atom  158 type  1   force =    -0.00000405    0.00003190   -0.00000024
     atom  159 type  1   force =    -0.00000403    0.00002197    0.00002027
     atom  160 type  1   force =    -0.00000792   -0.00001179    0.00000328
     atom  161 type  1   force =     0.00000593    0.00000988    0.00000630
     atom  162 type  1   force =     0.00000754    0.00002883    0.00001087
     atom  163 type  1   force =    -0.00001494   -0.00000356    0.00000353
     atom  164 type  1   force =     0.00000545    0.00003065   -0.00001338
     atom  165 type  1   force =     0.00000550   -0.00000613   -0.00001065
     atom  166 type  1   force =    -0.00001656   -0.00001640   -0.00000201
     atom  167 type  1   force =    -0.00001853    0.00002546   -0.00000136
     atom  168 type  1   force =    -0.00000106   -0.00002496    0.00000600
     atom  169 type  1   force =     0.00002786    0.00001069    0.00000083
     atom  170 type  1   force =    -0.00001380    0.00003721    0.00000323
     atom  171 type  1   force =    -0.00001011    0.00001725   -0.00001959
     atom  172 type  1   force =    -0.00003280    0.00000167   -0.00000789
     atom  173 type  1   force =    -0.00000559   -0.00002541   -0.00001418
     atom  174 type  1   force =     0.00001159    0.00001437   -0.00001492
     atom  175 type  1   force =    -0.00002032   -0.00001964   -0.00001401
     atom  176 type  1   force =     0.00000089   -0.00002201    0.00001633
     atom  177 type  1   force =    -0.00000831   -0.00000321   -0.00002307
     atom  178 type  1   force =    -0.00000588    0.00004328    0.00000518
     atom  179 type  1   force =     0.00001847    0.00002151    0.00000444
     atom  180 type  1   force =    -0.00001551    0.00001895    0.00001115
     atom  181 type  1   force =     0.00001009   -0.00000310   -0.00000608
     atom  182 type  1   force =    -0.00001121    0.00003899   -0.00000148
     atom  183 type  1   force =    -0.00000751   -0.00000022    0.00002392
     atom  184 type  1   force =     0.00000790   -0.00001353   -0.00002248
     atom  185 type  1   force =    -0.00002832   -0.00001929   -0.00000257
     atom  186 type  1   force =    -0.00001470    0.00000092    0.00002033
     atom  187 type  1   force =     0.00001519    0.00001160   -0.00000857
     atom  188 type  1   force =    -0.00000622    0.00001885   -0.00000844
     atom  189 type  1   force =     0.00000858   -0.00003386   -0.00000541
     atom  190 type  1   force =    -0.00000135    0.00003710    0.00000466
     atom  191 type  1   force =    -0.00001837   -0.00000504   -0.00000252
     atom  192 type  1   force =     0.00000510    0.00001344   -0.00000851
     atom  193 type  1   force =    -0.00001538    0.00000778   -0.00000998
     atom  194 type  1   force =    -0.00000784   -0.00000192   -0.00000128
     atom  195 type  1   force =    -0.00001271    0.00001568   -0.00000035
     atom  196 type  1   force =    -0.00001114   -0.00001018   -0.00001784
     atom  197 type  1   force =    -0.00002110   -0.00001081    0.00000067
     atom  198 type  1   force =    -0.00000644    0.00000905    0.00000222
     atom  199 type  1   force =     0.00001797    0.00001882    0.00000453
     atom  200 type  1   force =     0.00001009   -0.00000362   -0.00000695

     Total force =     0.371172     Total SCF correction =     0.000374


     Computing stress (Cartesian axis) and pressure


     negative rho (up, down):  4.201E-02 0.000E+00
          total   stress  (Ry/bohr**3)                   (kbar)     P=   -2.13
  -0.00001486  -0.00000037  -0.00000030         -2.19     -0.05     -0.04
  -0.00000037  -0.00001403  -0.00000029         -0.05     -2.06     -0.04
  -0.00000030  -0.00000029  -0.00001454         -0.04     -0.04     -2.14

     kinetic stress (kbar)    484.91     -0.03     -0.08
                               -0.03    484.81      0.08
                               -0.08      0.08    484.98

     local   stress (kbar) -44408.94    156.94  -1242.09
                              156.94 -32030.90   5513.67
                            -1242.09   5513.67 -19248.28

     nonloc. stress (kbar)    595.90     -0.18     -0.16
                               -0.18    595.80     -0.15
                               -0.16     -0.15    595.73

     hartree stress (kbar)  22822.88    -77.17    615.40
                              -77.17  16637.54  -2729.35
                              615.40  -2729.35  10265.69

     exc-cor stress (kbar)    767.82     -0.00     -0.00
                               -0.00    767.82     -0.02
                               -0.00     -0.02    767.81

     corecor stress (kbar)  -1148.32      0.01      0.01
                                0.01  -1148.32      0.01
                                0.01      0.01  -1148.31

     ewald   stress (kbar)  20883.56    -79.62    626.88
                              -79.62  14691.18  -2784.28
                              626.88  -2784.28   8280.24

     hubbard stress (kbar)      0.00      0.00      0.00
                                0.00      0.00      0.00
                                0.00      0.00      0.00

     london  stress (kbar)      0.00      0.00      0.00
                                0.00      0.00      0.00
                                0.00      0.00      0.00

     DFT-D3  stress (kbar)      0.00      0.00      0.00
                                0.00      0.00      0.00
                                0.00      0.00      0.00

     XDM     stress (kbar)      0.00      0.00      0.00
                                0.00      0.00      0.00
                                0.00      0.00      0.00

     dft-nl  stress (kbar)      0.00      0.00      0.00
                                0.00      0.00      0.00
                                0.00      0.00      0.00

     TS-vdW  stress (kbar)      0.00      0.00      0.00
                                0.00      0.00      0.00
                                0.00      0.00      0.00



     Writing output data file scf.save/
 
     init_run     :    100.92s CPU    106.06s WALL (       1 calls)
     electrons    :  14189.63s CPU  14453.05s WALL (       1 calls)
     forces       :     15.08s CPU     15.75s WALL (       1 calls)
     stress       :    275.89s CPU    278.01s WALL (       1 calls)

     Called by init_run:
     wfcinit      :     63.16s CPU     64.40s WALL (       1 calls)
     wfcinit:atom :      0.05s CPU      0.09s WALL (       1 calls)
     wfcinit:wfcr :     63.00s CPU     64.13s WALL (       1 calls)
     potinit      :      1.30s CPU      1.35s WALL (       1 calls)
     hinit0       :      5.52s CPU      8.86s WALL (       1 calls)

     Called by electrons:
     c_bands      :   7857.97s CPU   7999.99s WALL (      35 calls)
     sum_band     :   1031.68s CPU   1054.28s WALL (      35 calls)
     v_of_rho     :     27.28s CPU     27.83s WALL (      36 calls)
     v_h          :      3.93s CPU      3.99s WALL (      36 calls)
     v_xc         :     24.59s CPU     25.08s WALL (      38 calls)
     newd         :     32.93s CPU     38.44s WALL (      36 calls)
     mix_rho      :   5234.57s CPU   5325.70s WALL (      35 calls)

     Called by c_bands:
     init_us_2    :      6.59s CPU      6.69s WALL (      71 calls)
     regterg      :   7819.09s CPU   7960.37s WALL (      45 calls)

     Called by sum_band:
     sum_band:bec :      0.85s CPU      0.85s WALL (      35 calls)
     addusdens    :     29.52s CPU     34.89s WALL (      35 calls)

     Called by *egterg:
     h_psi        :   5586.08s CPU   5679.68s WALL (     552 calls)
     s_psi        :    243.72s CPU    245.74s WALL (     552 calls)
     g_psi        :      1.96s CPU      1.97s WALL (     506 calls)
     rdiaghg      :    992.34s CPU   1006.29s WALL (     551 calls)
     regterg:over :    367.91s CPU    375.67s WALL (     506 calls)
     regterg:upda :    394.39s CPU    397.61s WALL (     506 calls)
     regterg:last :    154.23s CPU    155.44s WALL (      45 calls)
     rdiaghg:chol :     27.17s CPU     27.74s WALL (     551 calls)
     rdiaghg:inve :     28.04s CPU     28.43s WALL (     551 calls)
     rdiaghg:para :     75.32s CPU     78.72s WALL (    1102 calls)

     Called by h_psi:
     h_psi:pot    :   5581.71s CPU   5675.28s WALL (     552 calls)
     h_psi:calbec :    269.51s CPU    274.32s WALL (     552 calls)
     vloc_psi     :   5066.50s CPU   5152.93s WALL (     552 calls)
     add_vuspsi   :    245.70s CPU    248.01s WALL (     552 calls)

     General routines
     calbec       :    359.52s CPU    365.98s WALL (     592 calls)
     fft          :     46.81s CPU     50.93s WALL (     414 calls)
     ffts         :   4762.21s CPU   4848.56s WALL (  108713 calls)
     fftw         :   5674.88s CPU   5774.61s WALL (  202636 calls)
     interpolate  :      5.08s CPU      5.16s WALL (      36 calls)
 
     Parallel routines
     fft_scatt_xy :    240.54s CPU    242.54s WALL (  311763 calls)
     fft_scatt_yz :   9506.02s CPU   9688.66s WALL (  311763 calls)
 
     PWSCF        :      4h 4m CPU      4h 9m WALL

 
   This run was terminated on:   7:16:46   6Dec2019            

=------------------------------------------------------------------------------=
   JOB DONE.
=------------------------------------------------------------------------------=
