/n/scratchlfs/kozinsky_lab/xiey/flare/datasets/stn_melt/melt/tmp/data_lammps000001txXcwK (written by ASE) 

4 	 atoms 
1  atom types
0.0 7.93552768  xlo xhi
0.0 4.58157904  ylo yhi
0.0 50.0000000  zlo zhi

Atoms 

     1   1 0E-9 2.290789521 0E-9
     2   1 1.322587947 0E-9 0.830535168
     3   1 3.967763840 0E-9 0E-9
     4   1 5.290351786 2.290789521 0.830535168
