64
Lattice="30.0 0.0 0.0 0.0 30.0 0.0 0.0 0.0 30.0" Properties=species:S:1:pos:R:3:momenta:R:3:forces:R:3 energy=0.0 pbc="F F F"
Sn      17.30302938      15.97168109      10.87936365       1.08397091       1.77513402      -3.29604212       0.17825600      -0.30629300      -1.34128000
Sn      14.12532938      16.57908109      17.76166365      -0.91691973       5.74239249       0.63335439      -0.39270100       0.76963700      -0.59169000
Sn      20.54842938      14.63710109      18.38230365       2.31249383      -0.25782612      -1.94797767      -0.15439100       0.01906850      -0.49896600
Sn      15.54276938      12.47109109      13.59986365      -1.31741619       1.07343254      -1.50430293      -0.36407700      -0.51865400      -0.33933600
Sn      17.88762938      14.57184109       8.17946365       9.15459830      -2.52964211       0.76408689      -0.24263500       0.59312600       0.42673100
Sn      10.46524938      13.12024109      19.91712365      -5.73303848       2.20216732       0.09947380      -0.40614600      -0.15475900       0.49154000
Sn      13.18160938      20.18812109      16.30318365       0.26357629      -0.42232972      -0.65085024      -0.17191300      -0.12454200       0.57173100
Sn      13.44727938      17.81962109       7.50926365      -2.07866786       1.41673300      -1.84225565       0.04932700       0.11414500      -0.28892200
Sn       9.02400938      16.69200109      18.19681365       0.94314479      -2.72620916      -3.67522981       0.17212700      -0.52027100      -0.21266000
Sn       9.58424938      13.69312109      17.18539365      -0.14693644       2.74356362       1.47844043      -0.39608500       0.07483000       0.06539160
Sn      10.96006938      10.97054109      17.30842365      -0.23131223      -2.68469623       3.19061015      -0.09783020       0.49759300      -0.07181260
Sn      15.01889938      13.14572109      10.18946365      -1.45263836       1.08736204      -1.45784712       0.28022800      -1.09359000      -0.11137500
Sn      11.38759938      15.64714109      16.09203365      -3.75012228      -1.07714998      -1.85991224       0.32176200       0.44615900       0.62388700
Sn      19.15412938      17.77312109       8.90806365       0.97514419      -5.74381855       0.64973961      -0.19429800      -0.59555200       0.38773800
Sn      12.43340938       8.61443109      17.80945365       2.86382422       2.39356188       2.56983774       0.33607300      -0.25133500       0.09306630
Sn      10.07812938      19.10382109      12.57696365       0.53070324       1.42114413      -1.18676224       0.56788900      -0.19476900      -0.20761000
Sn      13.41707938      12.29605109      15.68848365      -4.31290952      -0.54824986       5.31215658      -0.24057400      -0.08186140       0.42119100
Sn      17.54038938      14.68017109      18.83296365      -0.20657124      -2.27310791       1.79158208       0.49571200       0.33259400       0.73705900
Sn      12.00476938      12.45007109       9.98706365      -1.52369980      -0.58027947      -3.78442030       0.19017200       0.09431330       0.04695510
Sn      11.13355938      16.06084109      13.17056365       1.34266233      -0.72054000      -1.15241830      -0.52010000       0.63010400      -0.11352400
Sn      17.16989937      21.34442109      15.75652365      -0.83093660      -3.22037619      -2.13363171       0.09165020      -0.08611370       0.60936800
Sn      13.99488938      10.38391109      19.72214365      -0.31273437       0.68318924       5.25510198      -0.40770200      -0.33336800       0.06323400
Sn      18.89532938      12.56230109      16.62713365       6.19519161       2.82063144      -3.63139650      -0.69880100       0.63184400       0.70796100
Sn      19.95792938      17.56622109      18.74496365       1.65454711      -1.46785373       3.43434604      -0.36319400      -0.27633600      -0.35274400
Sn      17.57745938      14.35647109      14.38286365       2.22174547      -3.05051760       4.93198998       0.03606080       0.61177200       0.44894000
Sn      13.42845938      14.40684109      12.33476365       6.01133827       1.85530775      -0.55440610       0.00417628       0.04182190      -0.03461120
Sn      20.00992938      13.85328109      12.87666365      -3.34086641      -5.10732320       0.88715369       0.58191800       0.02855870       0.04227580
Sn       8.93183938      16.86261109      11.18766365      -4.28813470      -2.91841343      -3.00206772       0.05318870       0.03184080      -0.17404500
Sn      13.54662938      17.40222109      14.73660795       0.00673407       1.46005873      -3.10602529      -0.89485900      -0.09885740       0.64601400
Sn      10.83526938      15.11035109       9.86206365      -0.58788836       4.48642994       7.43634969       0.42310000       0.40973500       0.05044630
Sn      17.94612938      10.28122109      13.63926365       4.43222747      -4.29370601      -3.24043775      -0.15512000       0.31334000       0.00163583
Sn      19.59162938      19.24742109      16.28387365      -3.59220395      -1.00879564      -5.66933698       0.53726600       0.09275250       0.30147200
Sn      15.09737938      21.45472109      18.32756365       5.82837924      -1.45255377       3.54585690       0.09933160      -0.74334300      -0.13657400
Sn      12.79455938      13.88822109      18.61462365       0.01301452       4.91994096      -2.43310491       0.10976000      -0.40847400      -0.81481700
Sn      13.28152938      18.70502109      20.09615365       0.66190827      -1.25170853       2.90160280       0.52663200       0.01009550      -0.67391900
Sn      19.64462938      16.87872109      12.29176365       0.26527911       4.30174272      -1.79993301       0.55417500      -0.14364300      -0.18034700
Sn      15.61031938      18.88522109      10.86826365      -1.18781245      -2.57053869       2.46209749       0.23659200      -0.14382300      -0.01477400
Sn      10.82060938      13.31405109      14.13906365      -1.02593619      -1.26882128       0.76971500       0.00416802      -0.59961800       0.17823800
Sn      20.24842938      16.09506109      15.34702165       0.56694699       1.55630588       1.25097133      -0.40398700       0.34394600       0.19926500
Sn      17.77092938       9.58783109      16.65314365      -5.00861065      -3.54391117       0.68508542       1.76799000      -0.85527800      -0.79262400
Sn      15.00216938       8.86809109      16.25360365       0.40550338      -0.79783140      -0.92677407      -0.67244500      -0.41003800       0.79580100
Sn      16.33142938      17.91032109       8.17636365      -0.49881865       0.65137112       0.99861742       0.03516120      -0.26529400       0.26650100
Sn      16.22725938      19.56392109      20.95165365      -0.17655141       0.70354327      -1.57138831      -0.53634300       0.01783990      -0.69260900
Sn      14.32915938      15.55557109       9.05656365      -0.30299968       1.40044205      -2.55714820      -0.05945570       0.78712300      -0.06410250
Sn      15.78455938      16.72066109      13.10626365      -0.67708497       2.45303353       0.90089828      -0.05873620       0.04052140       0.48586500
Sn      12.90360938      17.69112109      11.27436365       0.14937162       4.86107357       0.42694025       0.06067980      -0.07858480       0.20335500
Sn      11.28741938      18.33432109      17.72305365       0.34185022      -4.59803749       1.44906112       0.56097600       0.05860960       0.15573200
Sn      17.09829938      17.07924109      16.13527365       3.79945438       6.82800095       1.54455899      -0.04028310      -0.36303900       0.78183200
Sn      12.54853938       9.39512109      14.59236365      -1.89248207       5.39715234      -2.14361415       0.06823450      -0.37315200       0.57737900
Sn      14.74238938      15.19690109      20.20655365      -1.66805845       0.52231364       0.95749968       0.56105900       0.00354662       1.06042000
Sn      17.76182938      19.89892109      18.46680365       0.93868894       0.86026274       2.50665591      -0.38279700      -0.16556700       0.22266300
Sn      11.13672938      10.38986109      20.44264365      -1.60322093       5.68235282      -4.20871025       0.21496100       0.05721850      -0.08663670
Sn      15.97862938      11.20446109      17.72935365      -3.29254947       2.23381867       0.20446720      -1.10200000       1.50001000       0.63944000
Sn      11.31020938      18.67912109       9.13396365       2.24591603       0.67656047       1.87255344      -0.77913300      -0.14187300       0.21852000
Sn      21.69692938      13.60924109      15.62023165      -2.16797807      -1.09165231      -0.42769679       0.21056300       0.09372960       0.14484700
Sn      20.51592938      11.05496109      14.96702965      -3.20134188       1.62190477       0.12030882       0.32640200      -0.73359600      -0.79348500
Sn      15.77414938      14.10491109      16.72689365      -5.13862407      -1.41408633      -2.42419806      -0.56833000      -0.34395600      -0.56063100
Sn      18.13822938      18.73782109      13.95766365       1.75282459      -1.84618337      -3.09673171      -0.19010000       0.41841200      -0.98930100
Sn      15.54491938       8.66057109      13.57516365       5.36328939      -1.02003495       5.23392857      -0.11960700       0.12961500      -0.83912200
Sn      15.24508938      19.70042109      14.45636365       0.53560866       0.52138791      -2.84975696       0.37794600       0.35454000      -0.67802800
Sn      17.61331938      12.70026109      11.44046365      -2.13613336      -3.60983637      -0.73804311       0.44393000      -0.05276810      -0.15132400
Sn      13.18659938      12.57278109      21.94217365       1.06123971      -1.58228923      -2.67352943      -0.19725500      -0.05064440      -0.73133200
Sn      12.52788938      11.32378109      12.58816365       0.56008860      -0.33376759       2.40191280       0.05928760       0.41366300      -0.19949900
Sn      15.92331938      12.37568109      20.50699365       0.13519559      -9.38627308       2.87526898       0.27414700       0.54690100       0.07120130
