
     Program PWSCF v.6.3 starts on  5Dec2019 at 23:19:24 

     This program is part of the open-source Quantum ESPRESSO suite
     for quantum simulation of materials; please cite
         "P. Giannozzi et al., J. Phys.:Condens. Matter 21 395502 (2009);
         "P. Giannozzi et al., J. Phys.:Condens. Matter 29 465901 (2017);
          URL http://www.quantum-espresso.org", 
     in publications or presentations arising from this work. More details at
     http://www.quantum-espresso.org/quote

     Parallel version (MPI), running on   448 processors

     MPI processes distributed on    14 nodes
     R & G space division:  proc/nbgrp/npool/nimage =     448
     Reading input from scf.pwi
Warning: card &IONS ignored
Warning: card / ignored
Warning: card &CELL ignored
Warning: card    CELL_DOFREE      = '2DXY' ignored
Warning: card / ignored

     Current dimensions of program PWSCF are:
     Max number of different atomic species (ntypx) = 10
     Max number of k-points (npk) =  40000
     Max angular momentum in pseudopotentials (lmaxx) =  3

     gamma-point specific algorithms are used

     Subspace diagonalization in iterative solution of the eigenvalue problem:
     one sub-group per band group will be used
     scalapack distributed-memory algorithm (size of sub-group: 14* 14 procs)

 
     Parallelization info
     --------------------
     sticks:   dense  smooth     PW     G-vecs:    dense   smooth      PW
     Min         460     229     56               184940    65380    8140
     Max         462     232     58               184994    65412    8198
     Sum      206659  103297  25827             82864339 29296605 3662131
 


     bravais-lattice index     =            0
     lattice parameter (alat)  =      74.9798  a.u.
     unit-cell volume          =  613376.7080 (a.u.)^3
     number of atoms/cell      =          200
     number of atomic types    =            1
     number of electrons       =      2800.00
     number of Kohn-Sham states=         1680
     kinetic-energy cutoff     =      50.0000  Ry
     charge density cutoff     =     400.0000  Ry
     convergence threshold     =      2.0E-08
     mixing beta               =       0.4000
     number of iterations used =            8  local-TF  mixing
     Exchange-correlation      = SLA  PW   PSX  PSC ( 1  4 10  8 0 0)

     celldm(1)=  74.979798  celldm(2)=   0.000000  celldm(3)=   0.000000
     celldm(4)=   0.000000  celldm(5)=   0.000000  celldm(6)=   0.000000

     crystal axes: (cart. coord. in units of alat)
               a(1) = (   1.000000   0.000000   0.000000 )  
               a(2) = (   0.000000   1.154702   0.000000 )  
               a(3) = (   0.000000   0.000000   1.260157 )  

     reciprocal axes: (cart. coord. in units 2 pi/alat)
               b(1) = (  1.000000  0.000000  0.000000 )  
               b(2) = (  0.000000  0.866024  0.000000 )  
               b(3) = (  0.000000  0.000000  0.793552 )  


     PseudoPot. # 1 for Sn read from file:
     /n/home08/xiey/q-e/pseudo/sn_pbesol_v1.4.uspp.F.UPF
     MD5 check sum: 463fec1d5456f1e96ec1bfcad4b7b038
     Pseudo is Ultrasoft + core correction, Zval = 14.0
     Generated by new atomic code, or converted to UPF format
     Using radial grid of  891 points,  6 beta functions with: 
                l(1) =   0
                l(2) =   0
                l(3) =   1
                l(4) =   1
                l(5) =   2
                l(6) =   2
     Q(r) pseudized with  8 coefficients,  rinner =    1.350   1.350   1.350
                                                       1.350   1.350

     atomic species   valence    mass     pseudopotential
        Sn            14.00   118.71000     Sn( 1.00)

     No symmetry found


                                    s                        frac. trans.

      isym =  1     identity                                     

 cryst.   s( 1) = (     1          0          0      )
                  (     0          1          0      )
                  (     0          0          1      )

 cart.    s( 1) = (  1.0000000  0.0000000  0.0000000 )
                  (  0.0000000  1.0000000  0.0000000 )
                  (  0.0000000  0.0000000  1.0000000 )


   Cartesian axes

     site n.     atom                  positions (alat units)
         1           Sn  tau(   1) = (   0.9236748   0.8097944   1.2200511  )
         2           Sn  tau(   2) = (   0.0318825   0.4092385   0.0438220  )
         3           Sn  tau(   3) = (   0.1700302   0.8159995   1.2399465  )
         4           Sn  tau(   4) = (   0.3213249   0.9054605   0.0617217  )
         5           Sn  tau(   5) = (   0.3234898   0.1594514   1.2475906  )
         6           Sn  tau(   6) = (   0.3899127   0.0247271   1.2458163  )
         7           Sn  tau(   7) = (   0.4145941   0.0051875   0.0563031  )
         8           Sn  tau(   8) = (   0.3789771   0.1067502   1.2515550  )
         9           Sn  tau(   9) = (   0.4462089   0.0767753   0.0245530  )
        10           Sn  tau(  10) = (   0.4563305   0.0105782   1.2447426  )
        11           Sn  tau(  11) = (   0.5087934   1.1203803   0.0500277  )
        12           Sn  tau(  12) = (   0.5090252   0.0659818   1.2374211  )
        13           Sn  tau(  13) = (   0.5289912   0.0394938   0.0515520  )
        14           Sn  tau(  14) = (   0.5835434   1.1231980   0.0432093  )
        15           Sn  tau(  15) = (   0.5692507   0.0304091   1.2501563  )
        16           Sn  tau(  16) = (   0.6758221   0.2106806   1.2462548  )
        17           Sn  tau(  17) = (   0.6863495   0.0557556   1.2238165  )
        18           Sn  tau(  18) = (   0.6337505   0.0232470   0.0317456  )
        19           Sn  tau(  19) = (   0.6945531   1.1402403   0.0036400  )
        20           Sn  tau(  20) = (   0.7534276   0.1900150   1.2474898  )
        21           Sn  tau(  21) = (   0.0275279   0.4805432   0.0535615  )
        22           Sn  tau(  22) = (   0.1806662   0.2971021   0.0372976  )
        23           Sn  tau(  23) = (   0.3020294   0.2113134   0.0447101  )
        24           Sn  tau(  24) = (   0.2119670   0.3431054   1.2387745  )
        25           Sn  tau(  25) = (   0.2451469   0.2749738   0.0143753  )
        26           Sn  tau(  26) = (   0.3188827   0.2400256   1.2409370  )
        27           Sn  tau(  27) = (   0.3706525   0.1709551   0.0521362  )
        28           Sn  tau(  28) = (   0.3888441   0.2029500   1.2395709  )
        29           Sn  tau(  29) = (   0.4481093   0.1709708   0.0284276  )
        30           Sn  tau(  30) = (   0.4487872   0.1323394   1.2228587  )
        31           Sn  tau(  31) = (   0.5217327   0.1305205   0.0112323  )
        32           Sn  tau(  32) = (   0.5172994   0.2122331   0.0287026  )
        33           Sn  tau(  33) = (   0.5849371   0.1883115   0.0238685  )
        34           Sn  tau(  34) = (   0.5772401   0.0989342   0.0467722  )
        35           Sn  tau(  35) = (   0.6214741   0.0894172   1.2504990  )
        36           Sn  tau(  36) = (   0.6402051   0.1443288   0.0350311  )
        37           Sn  tau(  37) = (   0.7868218   0.2581255   1.2401027  )
        38           Sn  tau(  38) = (   0.7263191   0.2324639   0.0450955  )
        39           Sn  tau(  39) = (   0.8148653   0.3148099   0.0251798  )
        40           Sn  tau(  40) = (   0.8122013   0.3225598   1.2115602  )
        41           Sn  tau(  41) = (   0.9413145   0.3949382   1.2377135  )
        42           Sn  tau(  42) = (   0.0938487   0.4532431   0.0385628  )
        43           Sn  tau(  43) = (   0.1417407   0.3051041   1.2402161  )
        44           Sn  tau(  44) = (   0.1409070   0.3694528   1.2056072  )
        45           Sn  tau(  45) = (   0.2644036   0.3493331   0.0403646  )
        46           Sn  tau(  46) = (   0.2902444   0.3088191   1.2281161  )
        47           Sn  tau(  47) = (   0.3662696   0.2550381   0.0435898  )
        48           Sn  tau(  48) = (   0.3384655   0.3315145   0.0194945  )
        49           Sn  tau(  49) = (   0.4104104   0.3178998  -0.0000331  )
        50           Sn  tau(  50) = (   0.4545310   0.2528858   0.0167349  )
        51           Sn  tau(  51) = (   0.5171961   0.2646833   1.2387846  )
        52           Sn  tau(  52) = (   0.5462856   0.3086175   0.0260784  )
        53           Sn  tau(  53) = (   0.6115970   0.3093534  -0.0008149  )
        54           Sn  tau(  54) = (   0.5941589   0.2406164   1.2302533  )
        55           Sn  tau(  55) = (   0.6462185   0.2140205   0.0596785  )
        56           Sn  tau(  56) = (   0.6670187   0.2835252   0.0396249  )
        57           Sn  tau(  57) = (   0.7472453   0.3066718   0.0400105  )
        58           Sn  tau(  58) = (   0.6980362   0.1279273   1.2481526  )
        59           Sn  tau(  59) = (   0.8752293   0.3479192   1.2479459  )
        60           Sn  tau(  60) = (   0.8637619   0.4146219   1.2442764  )
        61           Sn  tau(  61) = (   0.9895180   0.4457830   1.2494380  )
        62           Sn  tau(  62) = (   0.0441337   0.3992656   1.2268282  )
        63           Sn  tau(  63) = (   0.0989107   0.3750050   0.0166516  )
        64           Sn  tau(  64) = (   0.1125660   0.4468365   1.2271307  )
        65           Sn  tau(  65) = (   0.1843698   0.4105541   1.2531050  )
        66           Sn  tau(  66) = (   0.2572283   0.3974131   1.2404480  )
        67           Sn  tau(  67) = (   0.3337777   0.4064283   0.0191221  )
        68           Sn  tau(  68) = (   0.3701182   0.4756639   1.2341724  )
        69           Sn  tau(  69) = (   0.4092007   0.4120385   0.0148030  )
        70           Sn  tau(  70) = (   0.4495710   0.3618339   0.0449720  )
        71           Sn  tau(  71) = (   0.5118833   0.3694881   0.0234890  )
        72           Sn  tau(  72) = (   0.5499526   0.4235412   0.0168392  )
        73           Sn  tau(  73) = (   0.6110022   0.4176311   1.2447502  )
        74           Sn  tau(  74) = (   0.6494118   0.3676104   0.0191684  )
        75           Sn  tau(  75) = (   0.7192673   0.3604931   1.2579995  )
        76           Sn  tau(  76) = (   0.7449619   0.4296832   0.0289874  )
        77           Sn  tau(  77) = (   0.8037633   0.4596750   1.2423861  )
        78           Sn  tau(  78) = (   0.7183398   0.2837949   1.2303642  )
        79           Sn  tau(  79) = (   0.7983976   0.3833574   1.2562479  )
        80           Sn  tau(  80) = (   0.9108036   0.4478119   0.0222863  )
        81           Sn  tau(  81) = (   0.9881167   0.5180480   1.2588967  )
        82           Sn  tau(  82) = (   0.0603761   0.5405140   0.0051696  )
        83           Sn  tau(  83) = (   0.1254171   0.5199458   1.2339683  )
        84           Sn  tau(  84) = (   0.1448197   0.5479137   0.0385406  )
        85           Sn  tau(  85) = (   0.2026652   0.5194921   0.0042533  )
        86           Sn  tau(  86) = (   0.2252785   0.4703485   1.2291872  )
        87           Sn  tau(  87) = (   0.2926387   0.4660035   0.0078790  )
        88           Sn  tau(  88) = (   0.3239889   0.5243614   0.0276511  )
        89           Sn  tau(  89) = (   0.3941619   0.5248402   0.0183611  )
        90           Sn  tau(  90) = (   0.4346457   0.4755580   0.0477199  )
        91           Sn  tau(  91) = (   0.4995262   0.4716591   0.0184845  )
        92           Sn  tau(  92) = (   0.5336386   0.5306873   0.0383846  )
        93           Sn  tau(  93) = (   0.6013015   0.5250267   0.0360160  )
        94           Sn  tau(  94) = (   0.6413972   0.4787991   0.0065402  )
        95           Sn  tau(  95) = (   0.7104613   0.4876807   0.0070453  )
        96           Sn  tau(  96) = (   0.7401204   0.5427722   0.0434570  )
        97           Sn  tau(  97) = (   0.8108958   0.5497964   0.0163130  )
        98           Sn  tau(  98) = (   0.8493608   0.4867255   0.0304741  )
        99           Sn  tau(  99) = (   0.9116302   0.5192451   0.0013261  )
       100           Sn  tau( 100) = (   0.9694992   0.5704932   0.0470807  )
       101           Sn  tau( 101) = (   0.9641712   0.6484314   0.0508708  )
       102           Sn  tau( 102) = (   0.0150141   0.5923141   1.2434699  )
       103           Sn  tau( 103) = (   0.1093667   0.6038092   1.2430339  )
       104           Sn  tau( 104) = (   0.1326648   0.6230090   0.0703513  )
       105           Sn  tau( 105) = (   0.1752898   0.6227065   0.0064696  )
       106           Sn  tau( 106) = (   0.2334940   0.5808844   1.2427617  )
       107           Sn  tau( 107) = (   0.2852945   0.5853252   0.0285645  )
       108           Sn  tau( 108) = (   0.3301485   0.6294332   1.2554514  )
       109           Sn  tau( 109) = (   0.3989531   0.6376469   0.0061197  )
       110           Sn  tau( 110) = (   0.4358177   0.5831149   0.0143386  )
       111           Sn  tau( 111) = (   0.5028303   0.5863964   0.0100675  )
       112           Sn  tau( 112) = (   0.5288576   0.6498931   0.0171264  )
       113           Sn  tau( 113) = (   0.5959483   0.6450063   0.0403888  )
       114           Sn  tau( 114) = (   0.6324652   0.5859855   0.0452951  )
       115           Sn  tau( 115) = (   0.7003700   0.5960945   0.0367426  )
       116           Sn  tau( 116) = (   0.7472503   0.6486380   0.0260600  )
       117           Sn  tau( 117) = (   0.8065231   0.6474535   1.2450476  )
       118           Sn  tau( 118) = (   0.8292714   0.6066168   0.0538543  )
       119           Sn  tau( 119) = (   0.8978844   0.6023600   0.0366499  )
       120           Sn  tau( 120) = (   0.9528752   0.6406663   1.2398431  )
       121           Sn  tau( 121) = (   0.0207512   0.6837359   1.2365239  )
       122           Sn  tau( 122) = (   0.0575015   0.6395926   0.0191569  )
       123           Sn  tau( 123) = (   0.1597380   0.6960476   0.0734097  )
       124           Sn  tau( 124) = (   0.2053882   0.6982277   1.2584809  )
       125           Sn  tau( 125) = (   0.2624856   0.7342077   0.0677836  )
       126           Sn  tau( 126) = (   0.2227743   0.6571668   0.0589695  )
       127           Sn  tau( 127) = (   0.2799186   0.6810795   0.0179712  )
       128           Sn  tau( 128) = (   0.3281272   0.7332828   0.0019568  )
       129           Sn  tau( 129) = (   0.3843277   0.7469378   0.0470180  )
       130           Sn  tau( 130) = (   0.4249955   0.7004935   0.0167722  )
       131           Sn  tau( 131) = (   0.4955844   0.7107184   0.0166489  )
       132           Sn  tau( 132) = (   0.5262365   0.7665459   0.0529626  )
       133           Sn  tau( 133) = (   0.5928836   0.7714025   0.0295018  )
       134           Sn  tau( 134) = (   0.6304464   0.7069581   0.0237041  )
       135           Sn  tau( 135) = (   0.6941196   0.6996492   1.2565377  )
       136           Sn  tau( 136) = (   0.7233477   0.7636147   0.0107594  )
       137           Sn  tau( 137) = (   0.7653588   0.7096926   1.2314278  )
       138           Sn  tau( 138) = (   0.8633335   0.6817096   0.0150750  )
       139           Sn  tau( 139) = (   0.9194079   0.6969726   1.2205174  )
       140           Sn  tau( 140) = (   0.9205597   0.7514114   0.0031254  )
       141           Sn  tau( 141) = (   0.0720999   0.7652277   0.0327923  )
       142           Sn  tau( 142) = (   0.1078533   0.6839728   1.2316320  )
       143           Sn  tau( 143) = (   0.0939757   0.6928317   0.0512992  )
       144           Sn  tau( 144) = (   0.1942439   0.7598695   0.0612900  )
       145           Sn  tau( 145) = (   0.2957941   0.7986370   0.0724767  )
       146           Sn  tau( 146) = (   0.2597587   0.7381293   1.2309439  )
       147           Sn  tau( 147) = (   0.3104926   0.8096357   1.2235115  )
       148           Sn  tau( 148) = (   0.3482040   0.8116721   0.0288611  )
       149           Sn  tau( 149) = (   0.3887256   0.8794685   0.0701479  )
       150           Sn  tau( 150) = (   0.4233673   0.8119241   0.0561637  )
       151           Sn  tau( 151) = (   0.5003780   0.8281902   0.0328331  )
       152           Sn  tau( 152) = (   0.5450985   0.8818401   0.0452744  )
       153           Sn  tau( 153) = (   0.5851160   0.8749773   1.2478502  )
       154           Sn  tau( 154) = (   0.6268751   0.8263302   0.0107121  )
       155           Sn  tau( 155) = (   0.6812332   0.8048244   1.2337692  )
       156           Sn  tau( 156) = (   0.6516221   0.8729510   1.2136218  )
       157           Sn  tau( 157) = (   0.7894001   0.7770077   1.2177501  )
       158           Sn  tau( 158) = (   0.8353429   0.7536267   0.0188327  )
       159           Sn  tau( 159) = (   0.8490861   0.7233149   1.2073462  )
       160           Sn  tau( 160) = (   0.0633531   0.7466404   1.2148114  )
       161           Sn  tau( 161) = (   0.0973126   0.8217609   1.2522053  )
       162           Sn  tau( 162) = (   0.1420799   0.7466530   0.0092697  )
       163           Sn  tau( 163) = (   0.2483671   0.8017471   0.0081683  )
       164           Sn  tau( 164) = (   0.2556228   0.8619322   0.0565624  )
       165           Sn  tau( 165) = (   0.2543148   0.9325514   0.0125278  )
       166           Sn  tau( 166) = (   0.3013464   0.8815100   1.2342732  )
       167           Sn  tau( 167) = (   0.3653044   0.9096594   1.2590026  )
       168           Sn  tau( 168) = (   0.3744733   1.0284518   0.0524223  )
       169           Sn  tau( 169) = (   0.4086210   0.9566985   0.0434507  )
       170           Sn  tau( 170) = (   0.4468743   0.8810790   0.0225169  )
       171           Sn  tau( 171) = (   0.5186579   0.9275133   1.2509401  )
       172           Sn  tau( 172) = (   0.4840590   0.9490519   0.0489142  )
       173           Sn  tau( 173) = (   0.5856982   0.9474515   0.0310672  )
       174           Sn  tau( 174) = (   0.6078442   0.9586870   1.2177475  )
       175           Sn  tau( 175) = (   0.6541651   0.9171749   0.0259814  )
       176           Sn  tau( 176) = (   0.6892680   0.9557383   1.2309616  )
       177           Sn  tau( 177) = (   0.7245574   1.0112053   0.0062378  )
       178           Sn  tau( 178) = (   0.7131001   0.8763988   1.2583624  )
       179           Sn  tau( 179) = (   0.8803657   0.8163699   0.0199475  )
       180           Sn  tau( 180) = (   0.0045390   0.7483265   0.0141789  )
       181           Sn  tau( 181) = (   0.6592989   1.0320307   1.2291419  )
       182           Sn  tau( 182) = (   0.9786353   0.7408563   1.2045814  )
       183           Sn  tau( 183) = (   0.1885454   0.8324697   0.0488666  )
       184           Sn  tau( 184) = (   0.2132095   0.8706348   1.2353822  )
       185           Sn  tau( 185) = (   0.3780496   0.0757080   0.0550127  )
       186           Sn  tau( 186) = (   0.3091644   0.9824863   0.0491441  )
       187           Sn  tau( 187) = (   0.3517022   0.9799711   1.2493271  )
       188           Sn  tau( 188) = (   0.3710431   1.1077611   0.0663999  )
       189           Sn  tau( 189) = (   0.4047951   1.0896375  -0.0006678  )
       190           Sn  tau( 190) = (   0.4512723   1.0402267   0.0490617  )
       191           Sn  tau( 191) = (   0.5157016   1.0123395   1.2593327  )
       192           Sn  tau( 192) = (   0.4774356   1.0930727   1.2438555  )
       193           Sn  tau( 193) = (   0.5501820   1.0892998   1.2472478  )
       194           Sn  tau( 194) = (   0.5880472   1.0288299   1.2251522  )
       195           Sn  tau( 195) = (   0.6570912   0.9912041   0.0411996  )
       196           Sn  tau( 196) = (   0.5947562   1.0389514   0.0392612  )
       197           Sn  tau( 197) = (   0.6403311   1.1099966   1.2355813  )
       198           Sn  tau( 198) = (   0.6807090   1.0719373   0.0356922  )
       199           Sn  tau( 199) = (   0.8021403   0.8205738   0.0120215  )
       200           Sn  tau( 200) = (   0.8620582   0.7982438   1.1935878  )

   Crystallographic axes

     site n.     atom                  positions (cryst. coord.)
         1           Sn  tau(   1) = (  0.9236748  0.7013017  0.9681740  )
         2           Sn  tau(   2) = (  0.0318825  0.3544105  0.0347750  )
         3           Sn  tau(   3) = (  0.1700302  0.7066754  0.9839620  )
         4           Sn  tau(   4) = (  0.3213249  0.7841509  0.0489794  )
         5           Sn  tau(   5) = (  0.3234898  0.1380888  0.9900280  )
         6           Sn  tau(   6) = (  0.3899127  0.0214143  0.9886200  )
         7           Sn  tau(   7) = (  0.4145941  0.0044925  0.0446794  )
         8           Sn  tau(   8) = (  0.3789771  0.0924482  0.9931740  )
         9           Sn  tau(   9) = (  0.4462089  0.0664893  0.0194841  )
        10           Sn  tau(  10) = (  0.4563305  0.0091609  0.9877680  )
        11           Sn  tau(  11) = (  0.5087934  0.9702766  0.0396996  )
        12           Sn  tau(  12) = (  0.5090252  0.0571419  0.9819580  )
        13           Sn  tau(  13) = (  0.5289912  0.0342026  0.0409092  )
        14           Sn  tau(  14) = (  0.5835434  0.9727168  0.0342888  )
        15           Sn  tau(  15) = (  0.5692507  0.0263350  0.9920640  )
        16           Sn  tau(  16) = (  0.6758221  0.1824545  0.9889680  )
        17           Sn  tau(  17) = (  0.6863495  0.0482857  0.9711620  )
        18           Sn  tau(  18) = (  0.6337505  0.0201325  0.0251918  )
        19           Sn  tau(  19) = (  0.6945531  0.9874759  0.0028885  )
        20           Sn  tau(  20) = (  0.7534276  0.1645576  0.9899480  )
        21           Sn  tau(  21) = (  0.0275279  0.4161621  0.0425038  )
        22           Sn  tau(  22) = (  0.1806662  0.2572977  0.0295976  )
        23           Sn  tau(  23) = (  0.3020294  0.1830026  0.0354798  )
        24           Sn  tau(  24) = (  0.2119670  0.2971377  0.9830320  )
        25           Sn  tau(  25) = (  0.2451469  0.2381340  0.0114075  )
        26           Sn  tau(  26) = (  0.3188827  0.2078680  0.9847480  )
        27           Sn  tau(  27) = (  0.3706525  0.1480513  0.0413728  )
        28           Sn  tau(  28) = (  0.3888441  0.1757597  0.9836640  )
        29           Sn  tau(  29) = (  0.4481093  0.1480649  0.0225588  )
        30           Sn  tau(  30) = (  0.4487872  0.1146092  0.9704020  )
        31           Sn  tau(  31) = (  0.5217327  0.1130339  0.0089134  )
        32           Sn  tau(  32) = (  0.5172994  0.1837990  0.0227770  )
        33           Sn  tau(  33) = (  0.5849371  0.1630824  0.0189409  )
        34           Sn  tau(  34) = (  0.5772401  0.0856794  0.0371162  )
        35           Sn  tau(  35) = (  0.6214741  0.0774375  0.9923360  )
        36           Sn  tau(  36) = (  0.6402051  0.1249923  0.0277990  )
        37           Sn  tau(  37) = (  0.7868218  0.2235430  0.9840860  )
        38           Sn  tau(  38) = (  0.7263191  0.2013194  0.0357856  )
        39           Sn  tau(  39) = (  0.8148653  0.2726330  0.0199815  )
        40           Sn  tau(  40) = (  0.8122013  0.2793447  0.9614360  )
        41           Sn  tau(  41) = (  0.9413145  0.3420261  0.9821900  )
        42           Sn  tau(  42) = (  0.0938487  0.3925196  0.0306016  )
        43           Sn  tau(  43) = (  0.1417407  0.2642276  0.9841760  )
        44           Sn  tau(  44) = (  0.1409070  0.3199551  0.9567120  )
        45           Sn  tau(  45) = (  0.2644036  0.3025310  0.0320314  )
        46           Sn  tau(  46) = (  0.2902444  0.2674449  0.9745740  )
        47           Sn  tau(  47) = (  0.3662696  0.2208692  0.0345908  )
        48           Sn  tau(  48) = (  0.3384655  0.2870996  0.0154699  )
        49           Sn  tau(  49) = (  0.4104104  0.2753090 -0.0000262  )
        50           Sn  tau(  50) = (  0.4545310  0.2190052  0.0132800  )
        51           Sn  tau(  51) = (  0.5171961  0.2292222  0.9830400  )
        52           Sn  tau(  52) = (  0.5462856  0.2672702  0.0206946  )
        53           Sn  tau(  53) = (  0.6115970  0.2679076 -0.0006467  )
        54           Sn  tau(  54) = (  0.5941589  0.2083796  0.9762700  )
        55           Sn  tau(  55) = (  0.6462185  0.1853470  0.0473580  )
        56           Sn  tau(  56) = (  0.6670187  0.2455397  0.0314444  )
        57           Sn  tau(  57) = (  0.7472453  0.2655852  0.0317504  )
        58           Sn  tau(  58) = (  0.6980362  0.1107882  0.9904740  )
        59           Sn  tau(  59) = (  0.8752293  0.3013065  0.9903100  )
        60           Sn  tau(  60) = (  0.8637619  0.3590726  0.9873980  )
        61           Sn  tau(  61) = (  0.9895180  0.3860590  0.9914940  )
        62           Sn  tau(  62) = (  0.0441337  0.3457737  0.9735520  )
        63           Sn  tau(  63) = (  0.0989107  0.3247635  0.0132139  )
        64           Sn  tau(  64) = (  0.1125660  0.3869713  0.9737920  )
        65           Sn  tau(  65) = (  0.1843698  0.3555498  0.9944040  )
        66           Sn  tau(  66) = (  0.2572283  0.3441695  0.9843600  )
        67           Sn  tau(  67) = (  0.3337777  0.3519768  0.0151744  )
        68           Sn  tau(  68) = (  0.3701182  0.4119365  0.9793800  )
        69           Sn  tau(  69) = (  0.4092007  0.3568354  0.0117469  )
        70           Sn  tau(  70) = (  0.4495710  0.3133570  0.0356876  )
        71           Sn  tau(  71) = (  0.5118833  0.3199857  0.0186398  )
        72           Sn  tau(  72) = (  0.5499526  0.3667970  0.0133628  )
        73           Sn  tau(  73) = (  0.6110022  0.3616787  0.9877740  )
        74           Sn  tau(  74) = (  0.6494118  0.3183596  0.0152111  )
        75           Sn  tau(  75) = (  0.7192673  0.3121958  0.9982880  )
        76           Sn  tau(  76) = (  0.7449619  0.3721162  0.0230030  )
        77           Sn  tau(  77) = (  0.8037633  0.3980897  0.9858980  )
        78           Sn  tau(  78) = (  0.7183398  0.2457733  0.9763580  )
        79           Sn  tau(  79) = (  0.7983976  0.3319968  0.9968980  )
        80           Sn  tau(  80) = (  0.9108036  0.3878160  0.0176854  )
        81           Sn  tau(  81) = (  0.9881167  0.4486422  0.9990000  )
        82           Sn  tau(  82) = (  0.0603761  0.4680983  0.0041024  )
        83           Sn  tau(  83) = (  0.1254171  0.4502857  0.9792180  )
        84           Sn  tau(  84) = (  0.1448197  0.4745066  0.0305840  )
        85           Sn  tau(  85) = (  0.2026652  0.4498928  0.0033752  )
        86           Sn  tau(  86) = (  0.2252785  0.4073333  0.9754240  )
        87           Sn  tau(  87) = (  0.2926387  0.4035704  0.0062524  )
        88           Sn  tau(  88) = (  0.3239889  0.4541097  0.0219426  )
        89           Sn  tau(  89) = (  0.3941619  0.4545244  0.0145705  )
        90           Sn  tau(  90) = (  0.4346457  0.4118448  0.0378682  )
        91           Sn  tau(  91) = (  0.4995262  0.4084683  0.0146684  )
        92           Sn  tau(  92) = (  0.5336386  0.4595882  0.0304602  )
        93           Sn  tau(  93) = (  0.6013015  0.4546859  0.0285806  )
        94           Sn  tau(  94) = (  0.6413972  0.4146517  0.0051900  )
        95           Sn  tau(  95) = (  0.7104613  0.4223434  0.0055908  )
        96           Sn  tau(  96) = (  0.7401204  0.4700540  0.0344854  )
        97           Sn  tau(  97) = (  0.8108958  0.4761371  0.0129452  )
        98           Sn  tau(  98) = (  0.8493608  0.4215162  0.0241828  )
        99           Sn  tau(  99) = (  0.9116302  0.4496789  0.0010523  )
       100           Sn  tau( 100) = (  0.9694992  0.4940610  0.0373610  )
       101           Sn  tau( 101) = (  0.9641712  0.5615574  0.0403686  )
       102           Sn  tau( 102) = (  0.0150141  0.5129584  0.9867580  )
       103           Sn  tau( 103) = (  0.1093667  0.5229135  0.9864120  )
       104           Sn  tau( 104) = (  0.1326648  0.5395409  0.0558274  )
       105           Sn  tau( 105) = (  0.1752898  0.5392790  0.0051340  )
       106           Sn  tau( 106) = (  0.2334940  0.5030601  0.9861960  )
       107           Sn  tau( 107) = (  0.2852945  0.5069059  0.0226674  )
       108           Sn  tau( 108) = (  0.3301485  0.5451045  0.9962660  )
       109           Sn  tau( 109) = (  0.3989531  0.5522178  0.0048563  )
       110           Sn  tau( 110) = (  0.4358177  0.5049917  0.0113784  )
       111           Sn  tau( 111) = (  0.5028303  0.5078335  0.0079891  )
       112           Sn  tau( 112) = (  0.5288576  0.5628233  0.0135907  )
       113           Sn  tau( 113) = (  0.5959483  0.5585911  0.0320506  )
       114           Sn  tau( 114) = (  0.6324652  0.5074778  0.0359440  )
       115           Sn  tau( 115) = (  0.7003700  0.5162324  0.0291572  )
       116           Sn  tau( 116) = (  0.7472503  0.5617363  0.0206800  )
       117           Sn  tau( 117) = (  0.8065231  0.5607105  0.9880100  )
       118           Sn  tau( 118) = (  0.8292714  0.5253450  0.0427362  )
       119           Sn  tau( 119) = (  0.8978844  0.5216585  0.0290836  )
       120           Sn  tau( 120) = (  0.9528752  0.5548326  0.9838800  )
       121           Sn  tau( 121) = (  0.0207512  0.5921320  0.9812460  )
       122           Sn  tau( 122) = (  0.0575015  0.5539028  0.0152020  )
       123           Sn  tau( 123) = (  0.1597380  0.6027942  0.0582544  )
       124           Sn  tau( 124) = (  0.2053882  0.6046822  0.9986700  )
       125           Sn  tau( 125) = (  0.2624856  0.6358418  0.0537898  )
       126           Sn  tau( 126) = (  0.2227743  0.5691224  0.0467954  )
       127           Sn  tau( 127) = (  0.2799186  0.5898315  0.0142611  )
       128           Sn  tau( 128) = (  0.3281272  0.6350408  0.0015529  )
       129           Sn  tau( 129) = (  0.3843277  0.6468664  0.0373112  )
       130           Sn  tau( 130) = (  0.4249955  0.6066444  0.0133096  )
       131           Sn  tau( 131) = (  0.4955844  0.6154995  0.0132118  )
       132           Sn  tau( 132) = (  0.5262365  0.6638474  0.0420286  )
       133           Sn  tau( 133) = (  0.5928836  0.6680534  0.0234112  )
       134           Sn  tau( 134) = (  0.6304464  0.6122429  0.0188104  )
       135           Sn  tau( 135) = (  0.6941196  0.6059132  0.9971280  )
       136           Sn  tau( 136) = (  0.7233477  0.6613090  0.0085382  )
       137           Sn  tau( 137) = (  0.7653588  0.6146111  0.9772020  )
       138           Sn  tau( 138) = (  0.8633335  0.5903771  0.0119628  )
       139           Sn  tau( 139) = (  0.9194079  0.6035953  0.9685440  )
       140           Sn  tau( 140) = (  0.9205597  0.6507406  0.0024802  )
       141           Sn  tau( 141) = (  0.0720999  0.6627059  0.0260224  )
       142           Sn  tau( 142) = (  0.1078533  0.5923371  0.9773640  )
       143           Sn  tau( 143) = (  0.0939757  0.6000092  0.0407086  )
       144           Sn  tau( 144) = (  0.1942439  0.6580656  0.0486368  )
       145           Sn  tau( 145) = (  0.2957941  0.6916391  0.0575140  )
       146           Sn  tau( 146) = (  0.2597587  0.6392380  0.9768180  )
       147           Sn  tau( 147) = (  0.3104926  0.7011642  0.9709200  )
       148           Sn  tau( 148) = (  0.3482040  0.7029278  0.0229028  )
       149           Sn  tau( 149) = (  0.3887256  0.7616412  0.0556660  )
       150           Sn  tau( 150) = (  0.4233673  0.7031461  0.0445688  )
       151           Sn  tau( 151) = (  0.5003780  0.7172329  0.0260548  )
       152           Sn  tau( 152) = (  0.5450985  0.7636951  0.0359276  )
       153           Sn  tau( 153) = (  0.5851160  0.7577517  0.9902340  )
       154           Sn  tau( 154) = (  0.6268751  0.7156221  0.0085006  )
       155           Sn  tau( 155) = (  0.6812332  0.6969975  0.9790600  )
       156           Sn  tau( 156) = (  0.6516221  0.7559968  0.9630720  )
       157           Sn  tau( 157) = (  0.7894001  0.6729076  0.9663480  )
       158           Sn  tau( 158) = (  0.8353429  0.6526591  0.0149448  )
       159           Sn  tau( 159) = (  0.8490861  0.6264084  0.9580920  )
       160           Sn  tau( 160) = (  0.0633531  0.6466088  0.9640160  )
       161           Sn  tau( 161) = (  0.0973126  0.7116650  0.9936900  )
       162           Sn  tau( 162) = (  0.1420799  0.6466197  0.0073560  )
       163           Sn  tau( 163) = (  0.2483671  0.6943325  0.0064819  )
       164           Sn  tau( 164) = (  0.2556228  0.7464543  0.0448852  )
       165           Sn  tau( 165) = (  0.2543148  0.8076122  0.0099414  )
       166           Sn  tau( 166) = (  0.3013464  0.7634091  0.9794600  )
       167           Sn  tau( 167) = (  0.3653044  0.7877872  0.9990840  )
       168           Sn  tau( 168) = (  0.3744733  0.8906644  0.0415998  )
       169           Sn  tau( 169) = (  0.4086210  0.8285242  0.0344804  )
       170           Sn  tau( 170) = (  0.4468743  0.7630359  0.0178683  )
       171           Sn  tau( 171) = (  0.5186579  0.8032491  0.9926860  )
       172           Sn  tau( 172) = (  0.4840590  0.8219021  0.0388160  )
       173           Sn  tau( 173) = (  0.5856982  0.8205161  0.0246534  )
       174           Sn  tau( 174) = (  0.6078442  0.8302463  0.9663460  )
       175           Sn  tau( 175) = (  0.6541651  0.7942959  0.0206176  )
       176           Sn  tau( 176) = (  0.6892680  0.8276926  0.9768320  )
       177           Sn  tau( 177) = (  0.7245574  0.8757285  0.0049500  )
       178           Sn  tau( 178) = (  0.7131001  0.7589827  0.9985760  )
       179           Sn  tau( 179) = (  0.8803657  0.7069963  0.0158294  )
       180           Sn  tau( 180) = (  0.0045390  0.6480690  0.0112517  )
       181           Sn  tau( 181) = (  0.6592989  0.8937637  0.9753880  )
       182           Sn  tau( 182) = (  0.9786353  0.6415996  0.9558980  )
       183           Sn  tau( 183) = (  0.1885454  0.7209391  0.0387782  )
       184           Sn  tau( 184) = (  0.2132095  0.7539910  0.9803400  )
       185           Sn  tau( 185) = (  0.3780496  0.0655649  0.0436554  )
       186           Sn  tau( 186) = (  0.3091644  0.8508571  0.0389984  )
       187           Sn  tau( 187) = (  0.3517022  0.8486788  0.9914060  )
       188           Sn  tau( 188) = (  0.3710431  0.9593481  0.0526918  )
       189           Sn  tau( 189) = (  0.4047951  0.9436526 -0.0005300  )
       190           Sn  tau( 190) = (  0.4512723  0.9008617  0.0389330  )
       191           Sn  tau( 191) = (  0.5157016  0.8767107  0.9993460  )
       192           Sn  tau( 192) = (  0.4774356  0.9466276  0.9870640  )
       193           Sn  tau( 193) = (  0.5501820  0.9433602  0.9897560  )
       194           Sn  tau( 194) = (  0.5880472  0.8909918  0.9722220  )
       195           Sn  tau( 195) = (  0.6570912  0.8584069  0.0326940  )
       196           Sn  tau( 196) = (  0.5947562  0.8997573  0.0311558  )
       197           Sn  tau( 197) = (  0.6403311  0.9612841  0.9804980  )
       198           Sn  tau( 198) = (  0.6807090  0.9283239  0.0283236  )
       199           Sn  tau( 199) = (  0.8021403  0.7106369  0.0095397  )
       200           Sn  tau( 200) = (  0.8620582  0.6912986  0.9471740  )

     number of k points=     1  Marzari-Vanderbilt smearing, width (Ry)=  0.0200
                       cart. coord. in units 2pi/alat
        k(    1) = (   0.0000000   0.0000000   0.0000000), wk =   2.0000000

                       cryst. coord.
        k(    1) = (   0.0000000   0.0000000   0.0000000), wk =   2.0000000

     Dense  grid: 41432170 G-vectors     FFT dimensions: ( 480, 576, 625)

     Smooth grid: 14648303 G-vectors     FFT dimensions: ( 360, 400, 432)

     Dynamical RAM for                 wfc:     104.77 MB

     Dynamical RAM for     wfc (w. buffer):     104.77 MB

     Dynamical RAM for           str. fact:       1.41 MB

     Dynamical RAM for           local pot:       0.00 MB

     Dynamical RAM for          nlocal pot:     224.51 MB

     Dynamical RAM for                qrad:      19.12 MB

     Dynamical RAM for          rho,v,vnew:      16.89 MB

     Dynamical RAM for               rhoin:       5.63 MB

     Dynamical RAM for            rho*nmix:      22.58 MB

     Dynamical RAM for           G-vectors:       5.54 MB

     Dynamical RAM for          h,s,v(r/c):       5.27 MB

     Dynamical RAM for          <psi|beta>:      46.14 MB

     Dynamical RAM for                 psi:     419.08 MB

     Dynamical RAM for                hpsi:     419.08 MB

     Dynamical RAM for                spsi:     419.08 MB

     Dynamical RAM for      wfcinit/wfcrot:     298.68 MB

     Dynamical RAM for           addusdens:     544.66 MB

     Dynamical RAM for          addusforce:    1107.74 MB

     Dynamical RAM for         addusstress:     283.62 MB

     Estimated static dynamical RAM per process >     424.36 MB

     Estimated max dynamical RAM per process >       1.69 GB

     Estimated total dynamical RAM >     758.19 GB

     Initial potential from superposition of free atoms

     starting charge 2599.99167, renormalised to 2800.00000

     negative rho (up, down):  1.857E-01 0.000E+00
     Starting wfcs are 1800 atomic wfcs

     total cpu time spent up to now is      106.8 secs

     Self-consistent Calculation

     iteration #  1     ecut=    50.00 Ry     beta= 0.40
     Davidson diagonalization with overlap
     ethr =  1.00E-02,  avg # of iterations =  8.0

     negative rho (up, down):  2.769E+00 0.000E+00

     total cpu time spent up to now is      951.7 secs

     total energy              =  -31818.48036609 Ry
     Harris-Foulkes estimate   =  -31886.15752715 Ry
     estimated scf accuracy    <     280.76652224 Ry

     iteration #  2     ecut=    50.00 Ry     beta= 0.40
     Davidson diagonalization with overlap
     ethr =  1.00E-02,  avg # of iterations =  1.0

     negative rho (up, down):  1.029E+01 0.000E+00

     total cpu time spent up to now is     1273.5 secs

     total energy              =  -31743.04057554 Ry
     Harris-Foulkes estimate   =  -31824.60248851 Ry
     estimated scf accuracy    <     141.43448746 Ry

     iteration #  3     ecut=    50.00 Ry     beta= 0.40
     Davidson diagonalization with overlap
     ethr =  5.05E-03,  avg # of iterations =  3.0

     negative rho (up, down):  1.012E+01 0.000E+00

     total cpu time spent up to now is     1623.8 secs

     total energy              =  -31776.02666831 Ry
     Harris-Foulkes estimate   =  -31778.56829124 Ry
     estimated scf accuracy    <       7.57807513 Ry

     iteration #  4     ecut=    50.00 Ry     beta= 0.40
     Davidson diagonalization with overlap
     ethr =  2.71E-04,  avg # of iterations = 13.0

     negative rho (up, down):  1.041E+01 0.000E+00

     total cpu time spent up to now is     2045.5 secs

     total energy              =  -31776.22673437 Ry
     Harris-Foulkes estimate   =  -31776.91671816 Ry
     estimated scf accuracy    <       4.79335301 Ry

     iteration #  5     ecut=    50.00 Ry     beta= 0.40
     Davidson diagonalization with overlap
     ethr =  1.71E-04,  avg # of iterations = 11.0

     negative rho (up, down):  9.892E+00 0.000E+00

     total cpu time spent up to now is     2316.3 secs

     total energy              =  -31775.37843666 Ry
     Harris-Foulkes estimate   =  -31776.28575998 Ry
     estimated scf accuracy    <       3.00463882 Ry

     iteration #  6     ecut=    50.00 Ry     beta= 0.40
     Davidson diagonalization with overlap
     ethr =  1.07E-04,  avg # of iterations =  6.0

     negative rho (up, down):  8.181E+00 0.000E+00

     total cpu time spent up to now is     2545.9 secs

     total energy              =  -31775.35666078 Ry
     Harris-Foulkes estimate   =  -31775.69738674 Ry
     estimated scf accuracy    <       1.13613090 Ry

     iteration #  7     ecut=    50.00 Ry     beta= 0.40
     Davidson diagonalization with overlap
     ethr =  4.06E-05,  avg # of iterations = 16.0

     negative rho (up, down):  7.123E+00 0.000E+00

     total cpu time spent up to now is     2818.1 secs

     total energy              =  -31775.25467070 Ry
     Harris-Foulkes estimate   =  -31775.39491576 Ry
     estimated scf accuracy    <       0.80620775 Ry

     iteration #  8     ecut=    50.00 Ry     beta= 0.40
     Davidson diagonalization with overlap
     c_bands:  2 eigenvalues not converged
     ethr =  2.88E-05,  avg # of iterations = 20.0

     negative rho (up, down):  6.401E+00 0.000E+00

     total cpu time spent up to now is     3084.7 secs

     total energy              =  -31775.23497752 Ry
     Harris-Foulkes estimate   =  -31775.26803579 Ry
     estimated scf accuracy    <       0.70783855 Ry

     iteration #  9     ecut=    50.00 Ry     beta= 0.40
     Davidson diagonalization with overlap
     ethr =  2.53E-05,  avg # of iterations =  4.0

     negative rho (up, down):  6.147E+00 0.000E+00

     total cpu time spent up to now is     3323.2 secs

     total energy              =  -31775.18018937 Ry
     Harris-Foulkes estimate   =  -31775.23981646 Ry
     estimated scf accuracy    <       0.62957206 Ry

     iteration # 10     ecut=    50.00 Ry     beta= 0.40
     Davidson diagonalization with overlap
     ethr =  2.25E-05,  avg # of iterations = 28.0

     negative rho (up, down):  6.407E+00 0.000E+00

     total cpu time spent up to now is     3745.9 secs

     total energy              =  -31775.24014444 Ry
     Harris-Foulkes estimate   =  -31775.19276611 Ry
     estimated scf accuracy    <       0.54670308 Ry

     iteration # 11     ecut=    50.00 Ry     beta= 0.40
     Davidson diagonalization with overlap
     ethr =  1.95E-05,  avg # of iterations =  4.0

     negative rho (up, down):  5.308E+00 0.000E+00

     total cpu time spent up to now is     3951.3 secs

     total energy              =  -31775.11917730 Ry
     Harris-Foulkes estimate   =  -31775.27261648 Ry
     estimated scf accuracy    <       0.64944620 Ry

     iteration # 12     ecut=    50.00 Ry     beta= 0.40
     Davidson diagonalization with overlap
     ethr =  1.95E-05,  avg # of iterations = 27.0

     negative rho (up, down):  3.345E+00 0.000E+00

     total cpu time spent up to now is     4407.8 secs

     total energy              =  -31774.93330464 Ry
     Harris-Foulkes estimate   =  -31775.16293663 Ry
     estimated scf accuracy    <       0.48687874 Ry

     iteration # 13     ecut=    50.00 Ry     beta= 0.40
     Davidson diagonalization with overlap
     ethr =  1.74E-05,  avg # of iterations = 25.0

     negative rho (up, down):  3.555E+00 0.000E+00

     total cpu time spent up to now is     4903.1 secs

     total energy              =  -31774.97749152 Ry
     Harris-Foulkes estimate   =  -31774.95021346 Ry
     estimated scf accuracy    <       0.31098802 Ry

     iteration # 14     ecut=    50.00 Ry     beta= 0.40
     Davidson diagonalization with overlap
     c_bands:  1 eigenvalues not converged
     ethr =  1.11E-05,  avg # of iterations = 20.0

     negative rho (up, down):  2.873E+00 0.000E+00

     total cpu time spent up to now is     5176.8 secs

     total energy              =  -31774.82643160 Ry
     Harris-Foulkes estimate   =  -31774.98413007 Ry
     estimated scf accuracy    <       0.41523608 Ry

     iteration # 15     ecut=    50.00 Ry     beta= 0.40
     Davidson diagonalization with overlap
     ethr =  1.11E-05,  avg # of iterations = 31.0

     negative rho (up, down):  3.005E+00 0.000E+00

     total cpu time spent up to now is     5616.0 secs

     total energy              =  -31774.78456415 Ry
     Harris-Foulkes estimate   =  -31774.84761709 Ry
     estimated scf accuracy    <       0.18712374 Ry

     iteration # 16     ecut=    50.00 Ry     beta= 0.40
     Davidson diagonalization with overlap
     ethr =  6.68E-06,  avg # of iterations = 29.0

     negative rho (up, down):  2.498E+00 0.000E+00

     total cpu time spent up to now is     6106.4 secs

     total energy              =  -31774.77974975 Ry
     Harris-Foulkes estimate   =  -31774.81047971 Ry
     estimated scf accuracy    <       0.14377890 Ry

     iteration # 17     ecut=    50.00 Ry     beta= 0.40
     Davidson diagonalization with overlap
     ethr =  5.13E-06,  avg # of iterations = 79.0

     negative rho (up, down):  2.357E+00 0.000E+00

     total cpu time spent up to now is     6996.3 secs

     total energy              =  -31774.73784179 Ry
     Harris-Foulkes estimate   =  -31774.78326518 Ry
     estimated scf accuracy    <       0.09088661 Ry

     iteration # 18     ecut=    50.00 Ry     beta= 0.40
     Davidson diagonalization with overlap
     ethr =  3.25E-06,  avg # of iterations = 53.0

     negative rho (up, down):  1.854E+00 0.000E+00

     total cpu time spent up to now is     7684.8 secs

     total energy              =  -31774.70748774 Ry
     Harris-Foulkes estimate   =  -31774.74080166 Ry
     estimated scf accuracy    <       0.05353068 Ry

     iteration # 19     ecut=    50.00 Ry     beta= 0.40
     Davidson diagonalization with overlap
     ethr =  1.91E-06,  avg # of iterations = 53.0

     negative rho (up, down):  1.375E+00 0.000E+00

     total cpu time spent up to now is     8415.3 secs

     total energy              =  -31774.69287175 Ry
     Harris-Foulkes estimate   =  -31774.71139474 Ry
     estimated scf accuracy    <       0.03120092 Ry

     iteration # 20     ecut=    50.00 Ry     beta= 0.40
     Davidson diagonalization with overlap
     c_bands:  2 eigenvalues not converged
     ethr =  1.11E-06,  avg # of iterations = 40.0

     negative rho (up, down):  1.142E+00 0.000E+00

     total cpu time spent up to now is     8983.0 secs

     total energy              =  -31774.69805165 Ry
     Harris-Foulkes estimate   =  -31774.69635061 Ry
     estimated scf accuracy    <       0.01569234 Ry

     iteration # 21     ecut=    50.00 Ry     beta= 0.40
     Davidson diagonalization with overlap
     c_bands:  1 eigenvalues not converged
     ethr =  5.60E-07,  avg # of iterations = 60.0

     negative rho (up, down):  7.439E-01 0.000E+00

     total cpu time spent up to now is     9674.4 secs

     total energy              =  -31774.69759253 Ry
     Harris-Foulkes estimate   =  -31774.69848469 Ry
     estimated scf accuracy    <       0.00872626 Ry

     iteration # 22     ecut=    50.00 Ry     beta= 0.40
     Davidson diagonalization with overlap
     c_bands:  1 eigenvalues not converged
     ethr =  3.12E-07,  avg # of iterations = 40.0

     negative rho (up, down):  5.141E-01 0.000E+00

     total cpu time spent up to now is    10325.8 secs

     total energy              =  -31774.69442693 Ry
     Harris-Foulkes estimate   =  -31774.69800868 Ry
     estimated scf accuracy    <       0.00409180 Ry

     iteration # 23     ecut=    50.00 Ry     beta= 0.40
     Davidson diagonalization with overlap
     ethr =  1.46E-07,  avg # of iterations = 29.0

     negative rho (up, down):  2.247E-01 0.000E+00

     total cpu time spent up to now is    10865.9 secs

     total energy              =  -31774.69141930 Ry
     Harris-Foulkes estimate   =  -31774.69454253 Ry
     estimated scf accuracy    <       0.00241443 Ry

     iteration # 24     ecut=    50.00 Ry     beta= 0.40
     Davidson diagonalization with overlap
     c_bands:  1 eigenvalues not converged
     ethr =  8.62E-08,  avg # of iterations = 40.0

     negative rho (up, down):  1.349E-01 0.000E+00

     total cpu time spent up to now is    11374.7 secs

     total energy              =  -31774.69138132 Ry
     Harris-Foulkes estimate   =  -31774.69147566 Ry
     estimated scf accuracy    <       0.00124158 Ry

     iteration # 25     ecut=    50.00 Ry     beta= 0.40
     Davidson diagonalization with overlap
     c_bands:  3 eigenvalues not converged
     ethr =  4.43E-08,  avg # of iterations = 20.0

     negative rho (up, down):  1.040E-01 0.000E+00

     total cpu time spent up to now is    11774.8 secs

     total energy              =  -31774.69142132 Ry
     Harris-Foulkes estimate   =  -31774.69148288 Ry
     estimated scf accuracy    <       0.00067745 Ry

     iteration # 26     ecut=    50.00 Ry     beta= 0.40
     Davidson diagonalization with overlap
     c_bands:  1 eigenvalues not converged
     ethr =  2.42E-08,  avg # of iterations = 20.0

     negative rho (up, down):  7.804E-02 0.000E+00

     total cpu time spent up to now is    12229.1 secs

     total energy              =  -31774.69186214 Ry
     Harris-Foulkes estimate   =  -31774.69149323 Ry
     estimated scf accuracy    <       0.00041415 Ry

     iteration # 27     ecut=    50.00 Ry     beta= 0.40
     Davidson diagonalization with overlap
     ethr =  1.48E-08,  avg # of iterations =  7.0

     negative rho (up, down):  6.554E-02 0.000E+00

     total cpu time spent up to now is    12516.9 secs

     total energy              =  -31774.69202166 Ry
     Harris-Foulkes estimate   =  -31774.69189366 Ry
     estimated scf accuracy    <       0.00020561 Ry

     iteration # 28     ecut=    50.00 Ry     beta= 0.40
     Davidson diagonalization with overlap
     ethr =  7.34E-09,  avg # of iterations =  2.0

     negative rho (up, down):  6.513E-02 0.000E+00

     total cpu time spent up to now is    12836.9 secs

     total energy              =  -31774.69207464 Ry
     Harris-Foulkes estimate   =  -31774.69204748 Ry
     estimated scf accuracy    <       0.00007294 Ry

     iteration # 29     ecut=    50.00 Ry     beta= 0.40
     Davidson diagonalization with overlap
     ethr =  2.61E-09,  avg # of iterations =  2.0

     negative rho (up, down):  5.836E-02 0.000E+00

     total cpu time spent up to now is    13105.9 secs

     total energy              =  -31774.69208070 Ry
     Harris-Foulkes estimate   =  -31774.69207775 Ry
     estimated scf accuracy    <       0.00002734 Ry

     iteration # 30     ecut=    50.00 Ry     beta= 0.40
     Davidson diagonalization with overlap
     ethr =  9.76E-10,  avg # of iterations =  1.0

     negative rho (up, down):  4.253E-02 0.000E+00

     total cpu time spent up to now is    13377.3 secs

     total energy              =  -31774.69206655 Ry
     Harris-Foulkes estimate   =  -31774.69208115 Ry
     estimated scf accuracy    <       0.00001938 Ry

     iteration # 31     ecut=    50.00 Ry     beta= 0.40
     Davidson diagonalization with overlap
     ethr =  6.92E-10,  avg # of iterations =  2.0

     negative rho (up, down):  4.207E-02 0.000E+00

     total cpu time spent up to now is    13832.3 secs

     total energy              =  -31774.69206539 Ry
     Harris-Foulkes estimate   =  -31774.69206788 Ry
     estimated scf accuracy    <       0.00000351 Ry

     iteration # 32     ecut=    50.00 Ry     beta= 0.40
     Davidson diagonalization with overlap
     ethr =  1.25E-10,  avg # of iterations =  2.0

     negative rho (up, down):  4.190E-02 0.000E+00

     total cpu time spent up to now is    14195.2 secs

     total energy              =  -31774.69206590 Ry
     Harris-Foulkes estimate   =  -31774.69206598 Ry
     estimated scf accuracy    <       0.00000095 Ry

     iteration # 33     ecut=    50.00 Ry     beta= 0.40
     Davidson diagonalization with overlap
     ethr =  3.38E-11,  avg # of iterations =  2.0

     negative rho (up, down):  4.168E-02 0.000E+00

     total cpu time spent up to now is    14532.3 secs

     total energy              =  -31774.69206673 Ry
     Harris-Foulkes estimate   =  -31774.69206597 Ry
     estimated scf accuracy    <       0.00000029 Ry

     iteration # 34     ecut=    50.00 Ry     beta= 0.40
     Davidson diagonalization with overlap
     ethr =  1.02E-11,  avg # of iterations =  2.0

     negative rho (up, down):  4.097E-02 0.000E+00

     total cpu time spent up to now is    14802.7 secs

     total energy              =  -31774.69206849 Ry
     Harris-Foulkes estimate   =  -31774.69206674 Ry
     estimated scf accuracy    <       0.00000013 Ry

     iteration # 35     ecut=    50.00 Ry     beta= 0.40
     Davidson diagonalization with overlap
     ethr =  4.75E-12,  avg # of iterations =  2.0

     negative rho (up, down):  4.079E-02 0.000E+00

     total cpu time spent up to now is    15077.3 secs

     total energy              =  -31774.69206884 Ry
     Harris-Foulkes estimate   =  -31774.69206849 Ry
     estimated scf accuracy    <       0.00000006 Ry

     iteration # 36     ecut=    50.00 Ry     beta= 0.40
     Davidson diagonalization with overlap
     ethr =  2.21E-12,  avg # of iterations =  2.0

     negative rho (up, down):  4.066E-02 0.000E+00

     total cpu time spent up to now is    15498.3 secs

     total energy              =  -31774.69206870 Ry
     Harris-Foulkes estimate   =  -31774.69206885 Ry
     estimated scf accuracy    <       0.00000003 Ry

     iteration # 37     ecut=    50.00 Ry     beta= 0.40
     Davidson diagonalization with overlap
     ethr =  9.10E-13,  avg # of iterations =  2.0

     negative rho (up, down):  4.067E-02 0.000E+00

     total cpu time spent up to now is    15674.2 secs

     End of self-consistent calculation

          k = 0.0000 0.0000 0.0000 (****** PWs)   bands (ev):

   -25.1377 -25.1306 -25.1071 -25.0750 -25.0589 -25.0564 -25.0452 -25.0243
   -25.0222 -25.0204 -25.0115 -25.0102 -25.0091 -25.0045 -24.9999 -24.9963
   -24.9956 -24.9939 -24.9855 -24.9849 -24.9829 -24.9795 -24.9792 -24.9750
   -24.9726 -24.9714 -24.9688 -24.9683 -24.9649 -24.9615 -24.9612 -24.9599
   -24.9575 -24.9557 -24.9521 -24.9517 -24.9502 -24.9485 -24.9421 -24.9418
   -24.9414 -24.9409 -24.9406 -24.9393 -24.9368 -24.9351 -24.9337 -24.9298
   -24.9293 -24.9286 -24.9282 -24.9272 -24.9258 -24.9246 -24.9211 -24.9209
   -24.9185 -24.9176 -24.9155 -24.9147 -24.9136 -24.9129 -24.9117 -24.9104
   -24.9101 -24.9094 -24.9086 -24.9073 -24.9071 -24.9050 -24.9032 -24.9030
   -24.9025 -24.9011 -24.8995 -24.8967 -24.8951 -24.8943 -24.8921 -24.8911
   -24.8904 -24.8897 -24.8887 -24.8877 -24.8870 -24.8857 -24.8842 -24.8829
   -24.8821 -24.8809 -24.8803 -24.8797 -24.8778 -24.8772 -24.8768 -24.8766
   -24.8754 -24.8719 -24.8686 -24.8679 -24.8672 -24.8663 -24.8650 -24.8646
   -24.8640 -24.8632 -24.8621 -24.8613 -24.8612 -24.8600 -24.8591 -24.8586
   -24.8581 -24.8567 -24.8565 -24.8532 -24.8529 -24.8527 -24.8521 -24.8516
   -24.8511 -24.8510 -24.8500 -24.8481 -24.8475 -24.8473 -24.8472 -24.8466
   -24.8454 -24.8440 -24.8424 -24.8419 -24.8412 -24.8405 -24.8388 -24.8384
   -24.8382 -24.8366 -24.8363 -24.8348 -24.8345 -24.8333 -24.8329 -24.8304
   -24.8299 -24.8293 -24.8289 -24.8269 -24.8264 -24.8255 -24.8247 -24.8242
   -24.8230 -24.8222 -24.8217 -24.8214 -24.8211 -24.8209 -24.8207 -24.8205
   -24.8202 -24.8199 -24.8196 -24.8195 -24.8186 -24.8180 -24.8166 -24.8160
   -24.8156 -24.8153 -24.8150 -24.8149 -24.8138 -24.8135 -24.8129 -24.8128
   -24.8112 -24.8109 -24.8103 -24.8101 -24.8091 -24.8088 -24.8083 -24.8070
   -24.8069 -24.8061 -24.8055 -24.8052 -24.8050 -24.8031 -24.8029 -24.8026
   -24.8021 -24.8019 -24.8016 -24.8008 -24.8003 -24.7995 -24.7990 -24.7978
   -24.7974 -24.7969 -24.7964 -24.7958 -24.7956 -24.7955 -24.7950 -24.7943
   -24.7940 -24.7926 -24.7919 -24.7917 -24.7908 -24.7905 -24.7899 -24.7891
   -24.7889 -24.7883 -24.7880 -24.7865 -24.7864 -24.7855 -24.7846 -24.7844
   -24.7837 -24.7829 -24.7825 -24.7815 -24.7810 -24.7796 -24.7792 -24.7781
   -24.7771 -24.7769 -24.7765 -24.7754 -24.7750 -24.7747 -24.7741 -24.7737
   -24.7725 -24.7723 -24.7719 -24.7715 -24.7712 -24.7704 -24.7703 -24.7701
   -24.7697 -24.7693 -24.7689 -24.7680 -24.7672 -24.7670 -24.7664 -24.7659
   -24.7652 -24.7642 -24.7638 -24.7629 -24.7623 -24.7618 -24.7616 -24.7613
   -24.7610 -24.7604 -24.7603 -24.7600 -24.7595 -24.7579 -24.7569 -24.7567
   -24.7563 -24.7560 -24.7549 -24.7547 -24.7545 -24.7534 -24.7534 -24.7527
   -24.7523 -24.7517 -24.7509 -24.7502 -24.7499 -24.7482 -24.7480 -24.7475
   -24.7473 -24.7471 -24.7469 -24.7467 -24.7457 -24.7456 -24.7452 -24.7447
   -24.7440 -24.7438 -24.7427 -24.7417 -24.7408 -24.7401 -24.7391 -24.7388
   -24.7383 -24.7371 -24.7370 -24.7362 -24.7356 -24.7348 -24.7338 -24.7335
   -24.7331 -24.7324 -24.7320 -24.7319 -24.7314 -24.7311 -24.7303 -24.7300
   -24.7293 -24.7291 -24.7290 -24.7284 -24.7283 -24.7276 -24.7275 -24.7265
   -24.7258 -24.7253 -24.7249 -24.7245 -24.7234 -24.7223 -24.7221 -24.7217
   -24.7211 -24.7208 -24.7206 -24.7197 -24.7194 -24.7185 -24.7182 -24.7175
   -24.7171 -24.7163 -24.7156 -24.7154 -24.7148 -24.7143 -24.7136 -24.7133
   -24.7131 -24.7129 -24.7123 -24.7120 -24.7112 -24.7111 -24.7106 -24.7095
   -24.7094 -24.7079 -24.7079 -24.7074 -24.7065 -24.7054 -24.7052 -24.7049
   -24.7037 -24.7034 -24.7028 -24.7022 -24.7017 -24.7015 -24.7005 -24.7000
   -24.6991 -24.6989 -24.6986 -24.6982 -24.6973 -24.6973 -24.6971 -24.6966
   -24.6956 -24.6954 -24.6950 -24.6944 -24.6938 -24.6934 -24.6925 -24.6922
   -24.6918 -24.6917 -24.6908 -24.6905 -24.6900 -24.6895 -24.6893 -24.6890
   -24.6888 -24.6881 -24.6879 -24.6876 -24.6870 -24.6866 -24.6859 -24.6856
   -24.6855 -24.6851 -24.6849 -24.6846 -24.6843 -24.6833 -24.6829 -24.6826
   -24.6819 -24.6816 -24.6809 -24.6804 -24.6802 -24.6797 -24.6787 -24.6784
   -24.6778 -24.6775 -24.6771 -24.6762 -24.6760 -24.6752 -24.6751 -24.6745
   -24.6743 -24.6736 -24.6730 -24.6729 -24.6724 -24.6721 -24.6721 -24.6719
   -24.6713 -24.6707 -24.6699 -24.6692 -24.6686 -24.6679 -24.6678 -24.6674
   -24.6667 -24.6666 -24.6661 -24.6654 -24.6651 -24.6643 -24.6640 -24.6635
   -24.6633 -24.6629 -24.6623 -24.6621 -24.6615 -24.6612 -24.6609 -24.6598
   -24.6595 -24.6590 -24.6589 -24.6585 -24.6582 -24.6579 -24.6577 -24.6577
   -24.6567 -24.6558 -24.6547 -24.6544 -24.6541 -24.6536 -24.6535 -24.6533
   -24.6522 -24.6517 -24.6512 -24.6507 -24.6505 -24.6497 -24.6497 -24.6491
   -24.6490 -24.6484 -24.6476 -24.6472 -24.6467 -24.6461 -24.6457 -24.6448
   -24.6442 -24.6440 -24.6439 -24.6434 -24.6431 -24.6428 -24.6422 -24.6419
   -24.6417 -24.6405 -24.6403 -24.6397 -24.6392 -24.6392 -24.6386 -24.6383
   -24.6376 -24.6369 -24.6359 -24.6356 -24.6349 -24.6333 -24.6330 -24.6328
   -24.6328 -24.6320 -24.6311 -24.6304 -24.6302 -24.6301 -24.6292 -24.6288
   -24.6286 -24.6282 -24.6277 -24.6272 -24.6270 -24.6263 -24.6259 -24.6254
   -24.6251 -24.6248 -24.6244 -24.6241 -24.6235 -24.6227 -24.6224 -24.6223
   -24.6219 -24.6215 -24.6209 -24.6204 -24.6202 -24.6193 -24.6189 -24.6183
   -24.6181 -24.6171 -24.6169 -24.6167 -24.6164 -24.6160 -24.6154 -24.6153
   -24.6146 -24.6139 -24.6136 -24.6128 -24.6127 -24.6120 -24.6118 -24.6117
   -24.6107 -24.6102 -24.6099 -24.6094 -24.6087 -24.6085 -24.6081 -24.6074
   -24.6071 -24.6066 -24.6063 -24.6058 -24.6053 -24.6048 -24.6047 -24.6043
   -24.6034 -24.6030 -24.6021 -24.6014 -24.6013 -24.6010 -24.6005 -24.6002
   -24.5996 -24.5993 -24.5982 -24.5979 -24.5977 -24.5966 -24.5957 -24.5954
   -24.5946 -24.5941 -24.5937 -24.5933 -24.5930 -24.5928 -24.5923 -24.5920
   -24.5914 -24.5908 -24.5896 -24.5890 -24.5889 -24.5885 -24.5880 -24.5876
   -24.5875 -24.5862 -24.5860 -24.5857 -24.5852 -24.5846 -24.5839 -24.5838
   -24.5834 -24.5832 -24.5827 -24.5824 -24.5822 -24.5815 -24.5813 -24.5806
   -24.5795 -24.5794 -24.5793 -24.5791 -24.5784 -24.5778 -24.5773 -24.5767
   -24.5760 -24.5753 -24.5751 -24.5744 -24.5741 -24.5732 -24.5719 -24.5718
   -24.5711 -24.5699 -24.5695 -24.5693 -24.5686 -24.5678 -24.5677 -24.5676
   -24.5669 -24.5664 -24.5662 -24.5655 -24.5653 -24.5650 -24.5646 -24.5644
   -24.5643 -24.5639 -24.5629 -24.5625 -24.5622 -24.5619 -24.5610 -24.5597
   -24.5593 -24.5588 -24.5583 -24.5582 -24.5578 -24.5576 -24.5571 -24.5564
   -24.5562 -24.5558 -24.5551 -24.5543 -24.5542 -24.5534 -24.5532 -24.5528
   -24.5527 -24.5520 -24.5508 -24.5503 -24.5499 -24.5494 -24.5493 -24.5488
   -24.5485 -24.5475 -24.5471 -24.5471 -24.5467 -24.5460 -24.5459 -24.5452
   -24.5447 -24.5443 -24.5437 -24.5434 -24.5430 -24.5427 -24.5424 -24.5418
   -24.5411 -24.5408 -24.5406 -24.5401 -24.5393 -24.5392 -24.5385 -24.5378
   -24.5375 -24.5369 -24.5364 -24.5358 -24.5356 -24.5353 -24.5350 -24.5344
   -24.5339 -24.5337 -24.5332 -24.5329 -24.5323 -24.5317 -24.5315 -24.5307
   -24.5302 -24.5300 -24.5293 -24.5285 -24.5284 -24.5275 -24.5272 -24.5270
   -24.5259 -24.5250 -24.5245 -24.5239 -24.5232 -24.5230 -24.5222 -24.5219
   -24.5212 -24.5208 -24.5204 -24.5202 -24.5198 -24.5191 -24.5186 -24.5176
   -24.5171 -24.5166 -24.5165 -24.5157 -24.5152 -24.5147 -24.5142 -24.5139
   -24.5135 -24.5132 -24.5125 -24.5120 -24.5117 -24.5113 -24.5111 -24.5104
   -24.5101 -24.5097 -24.5095 -24.5087 -24.5079 -24.5078 -24.5073 -24.5069
   -24.5064 -24.5057 -24.5050 -24.5047 -24.5043 -24.5036 -24.5028 -24.5021
   -24.5018 -24.5009 -24.5009 -24.5002 -24.5001 -24.4999 -24.4985 -24.4978
   -24.4974 -24.4972 -24.4966 -24.4964 -24.4955 -24.4947 -24.4944 -24.4936
   -24.4931 -24.4927 -24.4923 -24.4911 -24.4910 -24.4905 -24.4900 -24.4893
   -24.4882 -24.4866 -24.4864 -24.4863 -24.4860 -24.4854 -24.4850 -24.4847
   -24.4841 -24.4833 -24.4823 -24.4814 -24.4811 -24.4806 -24.4799 -24.4779
   -24.4777 -24.4775 -24.4772 -24.4766 -24.4742 -24.4737 -24.4734 -24.4727
   -24.4725 -24.4718 -24.4716 -24.4715 -24.4706 -24.4698 -24.4697 -24.4691
   -24.4688 -24.4684 -24.4681 -24.4673 -24.4667 -24.4667 -24.4663 -24.4657
   -24.4641 -24.4636 -24.4631 -24.4626 -24.4619 -24.4617 -24.4606 -24.4592
   -24.4586 -24.4582 -24.4580 -24.4555 -24.4543 -24.4540 -24.4525 -24.4524
   -24.4517 -24.4514 -24.4500 -24.4491 -24.4487 -24.4484 -24.4481 -24.4470
   -24.4467 -24.4458 -24.4453 -24.4443 -24.4433 -24.4426 -24.4421 -24.4412
   -24.4401 -24.4392 -24.4372 -24.4358 -24.4355 -24.4354 -24.4341 -24.4337
   -24.4332 -24.4331 -24.4314 -24.4299 -24.4297 -24.4294 -24.4269 -24.4265
   -24.4255 -24.4245 -24.4237 -24.4227 -24.4203 -24.4199 -24.4192 -24.4175
   -24.4164 -24.4142 -24.4138 -24.4134 -24.4125 -24.4076 -24.4066 -24.4066
   -24.4061 -24.4057 -24.4052 -24.4042 -24.4013 -24.4013 -24.3999 -24.3988
   -24.3985 -24.3975 -24.3958 -24.3944 -24.3943 -24.3940 -24.3906 -24.3897
   -24.3879 -24.3868 -24.3864 -24.3857 -24.3846 -24.3845 -24.3841 -24.3820
   -24.3819 -24.3770 -24.3752 -24.3718 -24.3705 -24.3693 -24.3684 -24.3674
   -24.3669 -24.3651 -24.3648 -24.3643 -24.3622 -24.3614 -24.3573 -24.3551
   -24.3545 -24.3473 -24.3472 -24.3469 -24.3415 -24.3407 -24.3358 -24.3309
   -24.3300 -24.3292 -24.3281 -24.3234 -24.3215 -24.3184 -24.3176 -24.3131
   -24.3091 -24.3087 -24.3060 -24.3026 -24.3024 -24.2960 -24.2905 -24.2830
   -24.2796 -24.2769 -24.2652 -24.2638 -24.2623 -24.2612 -24.2606 -24.2562
   -24.2463 -24.2408 -24.2172 -24.2066 -24.2010 -24.1999 -24.1931 -24.1675
   -13.8426 -13.6088 -13.5740 -13.5427 -13.5256 -13.4498 -13.4196 -13.3097
   -13.2519 -13.2195 -13.1836 -13.1102 -13.0707 -13.0188 -12.9862 -12.9358
   -12.8692 -12.8336 -12.8043 -12.7510 -12.7146 -12.6676 -12.6448 -12.6076
   -12.5838 -12.5295 -12.4516 -12.4214 -12.3679 -12.3618 -12.3569 -12.2952
   -12.2900 -12.1972 -12.1577 -12.1436 -12.1251 -12.0941 -12.0284 -12.0048
   -11.9813 -11.9632 -11.8986 -11.8777 -11.8427 -11.7942 -11.7715 -11.7504
   -11.7382 -11.6868 -11.6735 -11.6537 -11.6210 -11.6046 -11.5924 -11.5245
   -11.5079 -11.4526 -11.4251 -11.3944 -11.3634 -11.3356 -11.3234 -11.2983
   -11.2796 -11.2564 -11.2171 -11.1758 -11.1397 -11.0706 -11.0463 -11.0232
   -11.0013 -10.9861 -10.9541 -10.9024 -10.8957 -10.8776 -10.8347 -10.8194
   -10.7906 -10.7577 -10.7255 -10.6516 -10.6470 -10.5941 -10.5801 -10.5382
   -10.5211 -10.4793 -10.4400 -10.4143 -10.3831 -10.3684 -10.3403 -10.2978
   -10.2767 -10.2515 -10.2288 -10.1857 -10.1760 -10.1641 -10.1324 -10.1122
   -10.0617 -10.0298  -9.9931  -9.9768  -9.9497  -9.9037  -9.8518  -9.8416
    -9.8332  -9.8050  -9.7885  -9.7667  -9.7299  -9.6926  -9.6906  -9.6767
    -9.6407  -9.6242  -9.5800  -9.5243  -9.5043  -9.4738  -9.4580  -9.4320
    -9.4231  -9.3969  -9.3943  -9.3833  -9.3496  -9.3056  -9.2685  -9.2586
    -9.2428  -9.2176  -9.1797  -9.1375  -9.1231  -9.1049  -9.0923  -9.0714
    -9.0419  -9.0170  -8.9988  -8.9763  -8.9657  -8.9409  -8.9248  -8.8443
    -8.8290  -8.7866  -8.7762  -8.7384  -8.7006  -8.6823  -8.6768  -8.6655
    -8.6271  -8.6090  -8.5816  -8.5514  -8.5278  -8.5092  -8.4857  -8.4337
    -8.4237  -8.4137  -8.3863  -8.3658  -8.3494  -8.3158  -8.3063  -8.2895
    -8.2351  -8.1887  -8.1568  -8.1420  -8.1263  -8.0788  -8.0578  -8.0447
    -7.9877  -7.9688  -7.9227  -7.8876  -7.8777  -7.8764  -7.8111  -7.7701
    -7.7466  -7.6614  -7.6269  -7.4912  -7.4352  -7.2193  -7.1606  -6.6208
    -6.5232  -6.4401  -6.4040  -6.3659  -6.3191  -6.2956  -6.2513  -6.2200
    -6.2084  -6.1824  -6.1619  -6.1439  -6.1416  -6.1213  -6.0996  -6.0841
    -6.0604  -6.0448  -6.0284  -5.9947  -5.9778  -5.9617  -5.9235  -5.9141
    -5.8983  -5.8907  -5.8721  -5.8677  -5.8410  -5.8294  -5.8154  -5.8016
    -5.7709  -5.7581  -5.7429  -5.7328  -5.7198  -5.6943  -5.6902  -5.6735
    -5.6572  -5.6344  -5.6309  -5.6133  -5.5847  -5.5723  -5.5579  -5.5404
    -5.5302  -5.5205  -5.5095  -5.4843  -5.4720  -5.4548  -5.4333  -5.4276
    -5.4117  -5.4027  -5.3894  -5.3632  -5.3609  -5.3396  -5.3266  -5.3160
    -5.2977  -5.2862  -5.2814  -5.2584  -5.2512  -5.2350  -5.2163  -5.2040
    -5.1826  -5.1769  -5.1599  -5.1559  -5.1309  -5.1092  -5.1053  -5.0895
    -5.0841  -5.0654  -5.0521  -5.0382  -5.0360  -5.0110  -5.0072  -4.9948
    -4.9734  -4.9692  -4.9593  -4.9264  -4.9102  -4.9025  -4.8948  -4.8772
    -4.8575  -4.8490  -4.8424  -4.8270  -4.8135  -4.7987  -4.7811  -4.7701
    -4.7535  -4.7192  -4.7082  -4.6903  -4.6845  -4.6627  -4.6523  -4.6348
    -4.6285  -4.6019  -4.5800  -4.5755  -4.5622  -4.5369  -4.5342  -4.5299
    -4.5115  -4.5032  -4.4792  -4.4639  -4.4535  -4.4381  -4.4365  -4.4241
    -4.4107  -4.3824  -4.3766  -4.3596  -4.3261  -4.3251  -4.3071  -4.2886
    -4.2758  -4.2658  -4.2427  -4.2305  -4.2249  -4.2186  -4.1974  -4.1873
    -4.1748  -4.1508  -4.1446  -4.1311  -4.1130  -4.1061  -4.0954  -4.0780
    -4.0631  -4.0382  -4.0337  -4.0202  -3.9969  -3.9941  -3.9874  -3.9817
    -3.9412  -3.9252  -3.9150  -3.9091  -3.8878  -3.8703  -3.8530  -3.8457
    -3.8287  -3.8143  -3.8061  -3.7936  -3.7699  -3.7493  -3.7239  -3.7177
    -3.6996  -3.6943  -3.6822  -3.6709  -3.6611  -3.6492  -3.6358  -3.6171
    -3.6048  -3.5771  -3.5439  -3.5395  -3.5302  -3.5255  -3.5049  -3.4896
    -3.4768  -3.4637  -3.4528  -3.4135  -3.4116  -3.4056  -3.3816  -3.3731
    -3.3416  -3.3359  -3.3175  -3.3004  -3.2880  -3.2682  -3.2440  -3.2407
    -3.2283  -3.2223  -3.1989  -3.1861  -3.1685  -3.1548  -3.1162  -3.1055
    -3.0867  -3.0816  -3.0646  -3.0462  -3.0430  -3.0200  -3.0163  -2.9932
    -2.9732  -2.9663  -2.9490  -2.9285  -2.9140  -2.9054  -2.8874  -2.8652
    -2.8561  -2.8350  -2.8126  -2.8074  -2.7873  -2.7824  -2.7612  -2.7260
    -2.7194  -2.7045  -2.6905  -2.6815  -2.6757  -2.6462  -2.6395  -2.6183
    -2.6101  -2.5960  -2.5737  -2.5639  -2.5370  -2.5130  -2.4986  -2.4853
    -2.4728  -2.4559  -2.4278  -2.4054  -2.3843  -2.3573  -2.3505  -2.3409
    -2.3290  -2.3062  -2.2923  -2.2728  -2.2557  -2.2395  -2.2287  -2.2152
    -2.1983  -2.1952  -2.1788  -2.1662  -2.1467  -2.1346  -2.1268  -2.1113
    -2.0929  -2.0688  -2.0480  -2.0288  -2.0223  -2.0081  -1.9900  -1.9730
    -1.9570  -1.9500  -1.9364  -1.9250  -1.9072  -1.9049  -1.8874  -1.8776
    -1.8581  -1.8270  -1.8240  -1.8134  -1.8021  -1.7782  -1.7543  -1.7436
    -1.7250  -1.7119  -1.7006  -1.6836  -1.6676  -1.6569  -1.6355  -1.6202
    -1.6062  -1.5886  -1.5851  -1.5690  -1.5547  -1.5422  -1.5188  -1.4988
    -1.4973  -1.4669  -1.4597  -1.4578  -1.4490  -1.4283  -1.4123  -1.4038
    -1.3850  -1.3828  -1.3694  -1.3339  -1.3291  -1.3213  -1.3135  -1.2932
    -1.2790  -1.2670  -1.2522  -1.2305  -1.2175  -1.2083  -1.1956  -1.1719
    -1.1638  -1.1560  -1.1436  -1.1265  -1.1217  -1.1174  -1.0954  -1.0861
    -1.0760  -1.0709  -1.0422  -1.0339  -1.0175  -1.0018  -0.9698  -0.9525
    -0.9308  -0.9130  -0.9105  -0.9029  -0.8907  -0.8850  -0.8665  -0.8557
    -0.8464  -0.8366  -0.8167  -0.7996  -0.7770  -0.7546  -0.7485  -0.7406
    -0.7274  -0.7086  -0.7046  -0.6937  -0.6752  -0.6665  -0.6645  -0.6493
    -0.6339  -0.6189  -0.6093  -0.6024  -0.5774  -0.5570  -0.5520  -0.5351
    -0.5168  -0.5120  -0.5065  -0.4873  -0.4817  -0.4637  -0.4456  -0.4320
    -0.4242  -0.4153  -0.4069  -0.3996  -0.3897  -0.3822  -0.3584  -0.3520
    -0.3441  -0.3344  -0.3114  -0.3000  -0.2840  -0.2711  -0.2555  -0.2452
    -0.2383  -0.2269  -0.2235  -0.2073  -0.2026  -0.1924  -0.1717  -0.1668
    -0.1666  -0.1361  -0.1196  -0.0940  -0.0845  -0.0764  -0.0712  -0.0598
    -0.0536  -0.0425  -0.0303  -0.0073   0.0102   0.0175   0.0340   0.0360
     0.0547   0.0591   0.0677   0.0976   0.1048   0.1097   0.1181   0.1354
     0.1397   0.1550   0.1699   0.1847   0.1903   0.2241   0.2383   0.2423
     0.2744   0.2827   0.2890   0.3004   0.3092   0.3132   0.3198   0.3321
     0.3483   0.3581   0.3644   0.3790   0.3865   0.4012   0.4076   0.4189
     0.4263   0.4354   0.4549   0.4626   0.4741   0.4795   0.4854   0.4973

     occupation numbers 
     1.0000   1.0000   1.0000   1.0000   1.0000   1.0000   1.0000   1.0000
     1.0000   1.0000   1.0000   1.0000   1.0000   1.0000   1.0000   1.0000
     1.0000   1.0000   1.0000   1.0000   1.0000   1.0000   1.0000   1.0000
     1.0000   1.0000   1.0000   1.0000   1.0000   1.0000   1.0000   1.0000
     1.0000   1.0000   1.0000   1.0000   1.0000   1.0000   1.0000   1.0000
     1.0000   1.0000   1.0000   1.0000   1.0000   1.0000   1.0000   1.0000
     1.0000   1.0000   1.0000   1.0000   1.0000   1.0000   1.0000   1.0000
     1.0000   1.0000   1.0000   1.0000   1.0000   1.0000   1.0000   1.0000
     1.0000   1.0000   1.0000   1.0000   1.0000   1.0000   1.0000   1.0000
     1.0000   1.0000   1.0000   1.0000   1.0000   1.0000   1.0000   1.0000
     1.0000   1.0000   1.0000   1.0000   1.0000   1.0000   1.0000   1.0000
     1.0000   1.0000   1.0000   1.0000   1.0000   1.0000   1.0000   1.0000
     1.0000   1.0000   1.0000   1.0000   1.0000   1.0000   1.0000   1.0000
     1.0000   1.0000   1.0000   1.0000   1.0000   1.0000   1.0000   1.0000
     1.0000   1.0000   1.0000   1.0000   1.0000   1.0000   1.0000   1.0000
     1.0000   1.0000   1.0000   1.0000   1.0000   1.0000   1.0000   1.0000
     1.0000   1.0000   1.0000   1.0000   1.0000   1.0000   1.0000   1.0000
     1.0000   1.0000   1.0000   1.0000   1.0000   1.0000   1.0000   1.0000
     1.0000   1.0000   1.0000   1.0000   1.0000   1.0000   1.0000   1.0000
     1.0000   1.0000   1.0000   1.0000   1.0000   1.0000   1.0000   1.0000
     1.0000   1.0000   1.0000   1.0000   1.0000   1.0000   1.0000   1.0000
     1.0000   1.0000   1.0000   1.0000   1.0000   1.0000   1.0000   1.0000
     1.0000   1.0000   1.0000   1.0000   1.0000   1.0000   1.0000   1.0000
     1.0000   1.0000   1.0000   1.0000   1.0000   1.0000   1.0000   1.0000
     1.0000   1.0000   1.0000   1.0000   1.0000   1.0000   1.0000   1.0000
     1.0000   1.0000   1.0000   1.0000   1.0000   1.0000   1.0000   1.0000
     1.0000   1.0000   1.0000   1.0000   1.0000   1.0000   1.0000   1.0000
     1.0000   1.0000   1.0000   1.0000   1.0000   1.0000   1.0000   1.0000
     1.0000   1.0000   1.0000   1.0000   1.0000   1.0000   1.0000   1.0000
     1.0000   1.0000   1.0000   1.0000   1.0000   1.0000   1.0000   1.0000
     1.0000   1.0000   1.0000   1.0000   1.0000   1.0000   1.0000   1.0000
     1.0000   1.0000   1.0000   1.0000   1.0000   1.0000   1.0000   1.0000
     1.0000   1.0000   1.0000   1.0000   1.0000   1.0000   1.0000   1.0000
     1.0000   1.0000   1.0000   1.0000   1.0000   1.0000   1.0000   1.0000
     1.0000   1.0000   1.0000   1.0000   1.0000   1.0000   1.0000   1.0000
     1.0000   1.0000   1.0000   1.0000   1.0000   1.0000   1.0000   1.0000
     1.0000   1.0000   1.0000   1.0000   1.0000   1.0000   1.0000   1.0000
     1.0000   1.0000   1.0000   1.0000   1.0000   1.0000   1.0000   1.0000
     1.0000   1.0000   1.0000   1.0000   1.0000   1.0000   1.0000   1.0000
     1.0000   1.0000   1.0000   1.0000   1.0000   1.0000   1.0000   1.0000
     1.0000   1.0000   1.0000   1.0000   1.0000   1.0000   1.0000   1.0000
     1.0000   1.0000   1.0000   1.0000   1.0000   1.0000   1.0000   1.0000
     1.0000   1.0000   1.0000   1.0000   1.0000   1.0000   1.0000   1.0000
     1.0000   1.0000   1.0000   1.0000   1.0000   1.0000   1.0000   1.0000
     1.0000   1.0000   1.0000   1.0000   1.0000   1.0000   1.0000   1.0000
     1.0000   1.0000   1.0000   1.0000   1.0000   1.0000   1.0000   1.0000
     1.0000   1.0000   1.0000   1.0000   1.0000   1.0000   1.0000   1.0000
     1.0000   1.0000   1.0000   1.0000   1.0000   1.0000   1.0000   1.0000
     1.0000   1.0000   1.0000   1.0000   1.0000   1.0000   1.0000   1.0000
     1.0000   1.0000   1.0000   1.0000   1.0000   1.0000   1.0000   1.0000
     1.0000   1.0000   1.0000   1.0000   1.0000   1.0000   1.0000   1.0000
     1.0000   1.0000   1.0000   1.0000   1.0000   1.0000   1.0000   1.0000
     1.0000   1.0000   1.0000   1.0000   1.0000   1.0000   1.0000   1.0000
     1.0000   1.0000   1.0000   1.0000   1.0000   1.0000   1.0000   1.0000
     1.0000   1.0000   1.0000   1.0000   1.0000   1.0000   1.0000   1.0000
     1.0000   1.0000   1.0000   1.0000   1.0000   1.0000   1.0000   1.0000
     1.0000   1.0000   1.0000   1.0000   1.0000   1.0000   1.0000   1.0000
     1.0000   1.0000   1.0000   1.0000   1.0000   1.0000   1.0000   1.0000
     1.0000   1.0000   1.0000   1.0000   1.0000   1.0000   1.0000   1.0000
     1.0000   1.0000   1.0000   1.0000   1.0000   1.0000   1.0000   1.0000
     1.0000   1.0000   1.0000   1.0000   1.0000   1.0000   1.0000   1.0000
     1.0000   1.0000   1.0000   1.0000   1.0000   1.0000   1.0000   1.0000
     1.0000   1.0000   1.0000   1.0000   1.0000   1.0000   1.0000   1.0000
     1.0000   1.0000   1.0000   1.0000   1.0000   1.0000   1.0000   1.0000
     1.0000   1.0000   1.0000   1.0000   1.0000   1.0000   1.0000   1.0000
     1.0000   1.0000   1.0000   1.0000   1.0000   1.0000   1.0000   1.0000
     1.0000   1.0000   1.0000   1.0000   1.0000   1.0000   1.0000   1.0000
     1.0000   1.0000   1.0000   1.0000   1.0000   1.0000   1.0000   1.0000
     1.0000   1.0000   1.0000   1.0000   1.0000   1.0000   1.0000   1.0000
     1.0000   1.0000   1.0000   1.0000   1.0000   1.0000   1.0000   1.0000
     1.0000   1.0000   1.0000   1.0000   1.0000   1.0000   1.0000   1.0000
     1.0000   1.0000   1.0000   1.0000   1.0000   1.0000   1.0000   1.0000
     1.0000   1.0000   1.0000   1.0000   1.0000   1.0000   1.0000   1.0000
     1.0000   1.0000   1.0000   1.0000   1.0000   1.0000   1.0000   1.0000
     1.0000   1.0000   1.0000   1.0000   1.0000   1.0000   1.0000   1.0000
     1.0000   1.0000   1.0000   1.0000   1.0000   1.0000   1.0000   1.0000
     1.0000   1.0000   1.0000   1.0000   1.0000   1.0000   1.0000   1.0000
     1.0000   1.0000   1.0000   1.0000   1.0000   1.0000   1.0000   1.0000
     1.0000   1.0000   1.0000   1.0000   1.0000   1.0000   1.0000   1.0000
     1.0000   1.0000   1.0000   1.0000   1.0000   1.0000   1.0000   1.0000
     1.0000   1.0000   1.0000   1.0000   1.0000   1.0000   1.0000   1.0000
     1.0000   1.0000   1.0000   1.0000   1.0000   1.0000   1.0000   1.0000
     1.0000   1.0000   1.0000   1.0000   1.0000   1.0000   1.0000   1.0000
     1.0000   1.0000   1.0000   1.0000   1.0000   1.0000   1.0000   1.0000
     1.0000   1.0000   1.0000   1.0000   1.0000   1.0000   1.0000   1.0000
     1.0000   1.0000   1.0000   1.0000   1.0000   1.0000   1.0000   1.0000
     1.0000   1.0000   1.0000   1.0000   1.0000   1.0000   1.0000   1.0000
     1.0000   1.0000   1.0000   1.0000   1.0000   1.0000   1.0000   1.0000
     1.0000   1.0000   1.0000   1.0000   1.0000   1.0000   1.0000   1.0000
     1.0000   1.0000   1.0000   1.0000   1.0000   1.0000   1.0000   1.0000
     1.0000   1.0000   1.0000   1.0000   1.0000   1.0000   1.0000   1.0000
     1.0000   1.0000   1.0000   1.0000   1.0000   1.0000   1.0000   1.0000
     1.0000   1.0000   1.0000   1.0000   1.0000   1.0000   1.0000   1.0000
     1.0000   1.0000   1.0000   1.0000   1.0000   1.0000   1.0000   1.0000
     1.0000   1.0000   1.0000   1.0000   1.0000   1.0000   1.0000   1.0000
     1.0000   1.0000   1.0000   1.0000   1.0000   1.0000   1.0000   1.0000
     1.0000   1.0000   1.0000   1.0000   1.0000   1.0000   1.0000   1.0000
     1.0000   1.0000   1.0000   1.0000   1.0000   1.0000   1.0000   1.0000
     1.0000   1.0000   1.0000   1.0000   1.0000   1.0000   1.0000   1.0000
     1.0000   1.0000   1.0000   1.0000   1.0000   1.0000   1.0000   1.0000
     1.0000   1.0000   1.0000   1.0000   1.0000   1.0000   1.0000   1.0000
     1.0000   1.0000   1.0000   1.0000   1.0000   1.0000   1.0000   1.0000
     1.0000   1.0000   1.0000   1.0000   1.0000   1.0000   1.0000   1.0000
     1.0000   1.0000   1.0000   1.0000   1.0000   1.0000   1.0000   1.0000
     1.0000   1.0000   1.0000   1.0000   1.0000   1.0000   1.0000   1.0000
     1.0000   1.0000   1.0000   1.0000   1.0000   1.0000   1.0000   1.0000
     1.0000   1.0000   1.0000   1.0000   1.0000   1.0000   1.0000   1.0000
     1.0000   1.0000   1.0000   1.0000   1.0000   1.0000   1.0000   1.0000
     1.0000   1.0000   1.0000   1.0000   1.0000   1.0000   1.0000   1.0000
     1.0000   1.0000   1.0000   1.0000   1.0000   1.0000   1.0000   1.0000
     1.0000   1.0000   1.0000   1.0000   1.0000   1.0000   1.0000   1.0000
     1.0000   1.0000   1.0000   1.0000   1.0000   1.0000   1.0000   1.0000
     1.0000   1.0000   1.0000   1.0000   1.0000   1.0000   1.0000   1.0000
     1.0000   1.0000   1.0000   1.0000   1.0000   1.0000   1.0000   1.0000
     1.0000   1.0000   1.0000   1.0000   1.0000   1.0000   1.0000   1.0000
     1.0000   1.0000   1.0000   1.0000   1.0000   1.0000   1.0000   1.0000
     1.0000   1.0000   1.0000   1.0000   1.0000   1.0000   1.0000   1.0000
     1.0000   1.0000   1.0000   1.0000   1.0000   1.0000   1.0000   1.0000
     1.0000   1.0000   1.0000   1.0000   1.0000   1.0000   1.0000   1.0000
     1.0000   1.0000   1.0000   1.0000   1.0000   1.0000   1.0000   1.0000
     1.0000   1.0000   1.0000   1.0000   1.0000   1.0000   1.0000   1.0000
     1.0000   1.0000   1.0000   1.0000   1.0000   1.0000   1.0000   1.0000
     1.0000   1.0000   1.0000   1.0000   1.0000   1.0000   1.0000   1.0000
     1.0000   1.0000   1.0000   1.0000   1.0000   1.0000   1.0000   1.0000
     1.0000   1.0000   1.0000   1.0000   1.0000   1.0000   1.0000   1.0000
     1.0000   1.0000   1.0000   1.0000   1.0000   1.0000   1.0000   1.0000
     1.0000   1.0000   1.0000   1.0000   1.0000   1.0000   1.0000   1.0000
     1.0000   1.0000   1.0000   1.0000   1.0000   1.0000   1.0000   1.0000
     1.0000   1.0000   1.0000   1.0000   1.0000   1.0000   1.0000   1.0000
     1.0000   1.0000   1.0000   1.0000   1.0000   1.0000   1.0000   1.0000
     1.0000   1.0000   1.0000   1.0000   1.0000   1.0000   1.0000   1.0000
     1.0000   1.0000   1.0000   1.0000   1.0000   1.0000   1.0000   1.0000
     1.0000   1.0000   1.0000   1.0000   1.0000   1.0000   1.0000   1.0000
     1.0000   1.0000   1.0000   1.0000   1.0000   1.0000   1.0000   1.0000
     1.0000   1.0000   1.0000   1.0000   1.0000   1.0000   1.0000   1.0000
     1.0000   1.0000   1.0000   1.0000   1.0000   1.0000   1.0000   1.0000
     1.0000   1.0000   1.0000   1.0000   1.0000   1.0000   1.0000   1.0000
     1.0000   1.0000   1.0000   1.0000   1.0000   1.0000   1.0000   1.0000
     1.0000   1.0000   1.0000   1.0000   1.0000   1.0000   1.0000   1.0000
     1.0000   1.0000   1.0000   1.0000   1.0000   1.0000   1.0000   1.0000
     1.0000   1.0000   1.0000   1.0000   1.0000   1.0000   1.0000   1.0000
     1.0000   1.0000   1.0000   1.0000   1.0000   1.0000   1.0000   1.0000
     1.0000   1.0000   1.0000   1.0000   1.0000   1.0000   1.0000   1.0000
     1.0000   1.0000   1.0000   1.0000   1.0000   1.0000   1.0000   1.0000
     1.0000   1.0000   1.0000   1.0000   1.0000   1.0000   1.0000   1.0000
     1.0000   1.0000   1.0000   1.0000   1.0000   1.0000   1.0000   1.0000
     1.0000   1.0000   1.0000   1.0000   1.0000   1.0000   1.0000   1.0000
     1.0000   1.0000   1.0000   1.0000   1.0000   1.0000   1.0000   1.0000
     1.0000   1.0000   1.0000   1.0000   1.0000   1.0000   1.0000   1.0000
     1.0000   1.0000   1.0000   1.0000   1.0000   1.0000   1.0000   1.0000
     1.0000   1.0000   1.0000   1.0000   1.0000   1.0000   1.0000   1.0000
[...]
     atom   18 type  1   force =     0.00000157   -0.00000134    0.00000138
     atom   19 type  1   force =    -0.00000341    0.00000224    0.00000820
     atom   20 type  1   force =    -0.00000493   -0.00000392    0.00000765
     atom   21 type  1   force =     0.00000234    0.00000564   -0.00000176
     atom   22 type  1   force =    -0.00000001   -0.00000236   -0.00000058
     atom   23 type  1   force =    -0.00000074   -0.00000205   -0.00000445
     atom   24 type  1   force =    -0.00000973   -0.00001584    0.00001225
     atom   25 type  1   force =     0.00000209   -0.00000310    0.00000159
     atom   26 type  1   force =    -0.00000545   -0.00001260    0.00001713
     atom   27 type  1   force =     0.00000343   -0.00000938   -0.00000457
     atom   28 type  1   force =    -0.00000026   -0.00001517    0.00001668
     atom   29 type  1   force =    -0.00000660   -0.00001533    0.00000362
     atom   30 type  1   force =    -0.00000771   -0.00000869    0.00002111
     atom   31 type  1   force =    -0.00000424   -0.00000543    0.00000817
     atom   32 type  1   force =     0.00000153   -0.00001405    0.00000793
     atom   33 type  1   force =     0.00000446   -0.00000633    0.00000313
     atom   34 type  1   force =     0.00000458   -0.00000717    0.00000385
     atom   35 type  1   force =     0.00001128   -0.00000897    0.00000509
     atom   36 type  1   force =     0.00000902   -0.00000727    0.00000049
     atom   37 type  1   force =    -0.00000319    0.00000105    0.00000687
     atom   38 type  1   force =     0.00000426   -0.00001279   -0.00000634
     atom   39 type  1   force =     0.00000831   -0.00000203   -0.00001664
     atom   40 type  1   force =     0.00000689    0.00000324    0.00002386
     atom   41 type  1   force =    -0.00000115   -0.00000999    0.00000901
     atom   42 type  1   force =    -0.00000182   -0.00000097   -0.00000537
     atom   43 type  1   force =     0.00000195    0.00000358    0.00000653
     atom   44 type  1   force =    -0.00000541   -0.00000455    0.00001296
     atom   45 type  1   force =    -0.00000704   -0.00000986   -0.00000062
     atom   46 type  1   force =    -0.00001057   -0.00000675    0.00001265
     atom   47 type  1   force =    -0.00000748   -0.00001129    0.00000216
     atom   48 type  1   force =    -0.00001100   -0.00001282    0.00000226
     atom   49 type  1   force =    -0.00001064   -0.00001510    0.00000451
     atom   50 type  1   force =    -0.00000532   -0.00001953    0.00001056
     atom   51 type  1   force =     0.00000793   -0.00001520    0.00000387
     atom   52 type  1   force =     0.00000361   -0.00002785    0.00001219
     atom   53 type  1   force =     0.00001106   -0.00002812    0.00000375
     atom   54 type  1   force =     0.00001097   -0.00001620    0.00001003
     atom   55 type  1   force =     0.00001035   -0.00001069   -0.00000245
     atom   56 type  1   force =     0.00001069   -0.00001578   -0.00000175
     atom   57 type  1   force =     0.00000345   -0.00000937   -0.00000488
     atom   58 type  1   force =     0.00000106    0.00000060    0.00000915
     atom   59 type  1   force =    -0.00001275   -0.00001696    0.00000681
     atom   60 type  1   force =    -0.00000456   -0.00001998    0.00000162
     atom   61 type  1   force =     0.00001162   -0.00000135    0.00001142
     atom   62 type  1   force =     0.00000434   -0.00000450    0.00001246
     atom   63 type  1   force =     0.00000257   -0.00000209   -0.00000194
     atom   64 type  1   force =    -0.00000750   -0.00001197    0.00001547
     atom   65 type  1   force =    -0.00001705   -0.00001240    0.00000854
     atom   66 type  1   force =    -0.00000565   -0.00001340    0.00001104
     atom   67 type  1   force =    -0.00001184   -0.00001112    0.00000551
     atom   68 type  1   force =    -0.00001142   -0.00000993    0.00000513
     atom   69 type  1   force =    -0.00001761   -0.00000443   -0.00000014
     atom   70 type  1   force =    -0.00001003   -0.00001512    0.00001264
     atom   71 type  1   force =     0.00000091   -0.00001404    0.00000643
     atom   72 type  1   force =     0.00000042   -0.00000128    0.00001009
     atom   73 type  1   force =     0.00000664   -0.00001033    0.00000097
     atom   74 type  1   force =     0.00002011   -0.00001850    0.00001128
     atom   75 type  1   force =     0.00001818   -0.00002185    0.00000490
     atom   76 type  1   force =     0.00001568   -0.00001700    0.00000767
     atom   77 type  1   force =     0.00000320   -0.00001266    0.00000753
     atom   78 type  1   force =     0.00001056   -0.00001058    0.00001426
     atom   79 type  1   force =     0.00000544   -0.00003385    0.00000300
     atom   80 type  1   force =     0.00001357   -0.00000767    0.00000146
     atom   81 type  1   force =     0.00000177    0.00000250    0.00001078
     atom   82 type  1   force =    -0.00000153   -0.00000532    0.00001280
     atom   83 type  1   force =    -0.00000778   -0.00000128    0.00001153
     atom   84 type  1   force =    -0.00001809    0.00000352    0.00000674
     atom   85 type  1   force =    -0.00001679   -0.00000290    0.00001315
     atom   86 type  1   force =    -0.00000866   -0.00001341    0.00000580
     atom   87 type  1   force =    -0.00000921   -0.00001486    0.00000818
     atom   88 type  1   force =    -0.00001006   -0.00000844    0.00000784
     atom   89 type  1   force =    -0.00000747   -0.00000567    0.00000696
     atom   90 type  1   force =    -0.00000214   -0.00000945    0.00001156
     atom   91 type  1   force =     0.00000010   -0.00000260    0.00000627
     atom   92 type  1   force =    -0.00000289   -0.00000384    0.00001183
     atom   93 type  1   force =     0.00000473    0.00000113    0.00001102
     atom   94 type  1   force =     0.00001079   -0.00000238    0.00000634
     atom   95 type  1   force =     0.00001216   -0.00000397    0.00000474
     atom   96 type  1   force =     0.00001945   -0.00000559    0.00000744
     atom   97 type  1   force =     0.00001104    0.00000964    0.00000183
     atom   98 type  1   force =     0.00000574    0.00000134   -0.00000053
     atom   99 type  1   force =     0.00001436    0.00001295    0.00000919
     atom  100 type  1   force =     0.00000216    0.00000686   -0.00000082
     atom  101 type  1   force =    -0.00000092    0.00000701   -0.00000764
     atom  102 type  1   force =    -0.00000562    0.00000879    0.00001228
     atom  103 type  1   force =    -0.00000646    0.00000890    0.00001502
     atom  104 type  1   force =    -0.00000842    0.00000437   -0.00000415
     atom  105 type  1   force =    -0.00001778    0.00000793    0.00001417
     atom  106 type  1   force =    -0.00001485    0.00000639    0.00000562
     atom  107 type  1   force =    -0.00001494    0.00000408    0.00001023
     atom  108 type  1   force =    -0.00001395    0.00000823    0.00000808
     atom  109 type  1   force =    -0.00000328    0.00001298    0.00001011
     atom  110 type  1   force =    -0.00000325   -0.00000029    0.00001298
     atom  111 type  1   force =     0.00000527    0.00000280    0.00000530
     atom  112 type  1   force =     0.00000494    0.00000932    0.00000878
     atom  113 type  1   force =     0.00000868    0.00001243    0.00000814
     atom  114 type  1   force =     0.00000679    0.00001575    0.00000717
     atom  115 type  1   force =     0.00000413    0.00001193    0.00000183
     atom  116 type  1   force =     0.00001944    0.00000913    0.00000012
     atom  117 type  1   force =     0.00001856    0.00000632    0.00001283
     atom  118 type  1   force =     0.00001089    0.00001066    0.00000076
     atom  119 type  1   force =     0.00000923    0.00001044    0.00000054
     atom  120 type  1   force =     0.00000271    0.00000337    0.00001974
     atom  121 type  1   force =    -0.00000182    0.00001109    0.00001633
     atom  122 type  1   force =    -0.00000190    0.00001021    0.00000670
     atom  123 type  1   force =    -0.00001047    0.00000087   -0.00000221
     atom  124 type  1   force =    -0.00001683    0.00000872    0.00001216
     atom  125 type  1   force =    -0.00000668    0.00001109   -0.00000029
     atom  126 type  1   force =    -0.00001346    0.00000672    0.00000260
     atom  127 type  1   force =    -0.00001014    0.00000949    0.00000914
     atom  128 type  1   force =    -0.00000863    0.00002037    0.00000983
     atom  129 type  1   force =    -0.00000720    0.00002032    0.00000842
     atom  130 type  1   force =     0.00000262    0.00001533    0.00001116
     atom  131 type  1   force =    -0.00000192    0.00001338    0.00000716
     atom  132 type  1   force =    -0.00000099    0.00001302    0.00000667
     atom  133 type  1   force =     0.00000468    0.00000816    0.00000823
     atom  134 type  1   force =     0.00000277    0.00000890    0.00000638
     atom  135 type  1   force =     0.00000659    0.00000438    0.00000583
     atom  136 type  1   force =     0.00001601    0.00001781    0.00000656
     atom  137 type  1   force =     0.00001696    0.00000863    0.00000955
     atom  138 type  1   force =     0.00001240    0.00000459    0.00000509
     atom  139 type  1   force =     0.00000261    0.00001185    0.00001376
     atom  140 type  1   force =     0.00000255   -0.00000081    0.00000719
     atom  141 type  1   force =    -0.00000285   -0.00000501    0.00000084
     atom  142 type  1   force =    -0.00001111    0.00000712    0.00002024
     atom  143 type  1   force =    -0.00000892    0.00000275   -0.00000890
     atom  144 type  1   force =    -0.00000231    0.00000927   -0.00000233
     atom  145 type  1   force =    -0.00000279    0.00001655   -0.00000360
     atom  146 type  1   force =    -0.00000790    0.00001629    0.00001137
     atom  147 type  1   force =    -0.00000494    0.00001467    0.00002151
     atom  148 type  1   force =    -0.00000854    0.00002166    0.00000103
     atom  149 type  1   force =    -0.00000047    0.00001842   -0.00000608
     atom  150 type  1   force =    -0.00000312    0.00002383    0.00000348
     atom  151 type  1   force =    -0.00000816    0.00002263    0.00000194
     atom  152 type  1   force =    -0.00000758    0.00002366    0.00000491
     atom  153 type  1   force =    -0.00000192    0.00002051    0.00000660
     atom  154 type  1   force =     0.00000556    0.00001957    0.00001049
     atom  155 type  1   force =     0.00000924    0.00001428    0.00000718
     atom  156 type  1   force =     0.00000860    0.00001705    0.00001752
     atom  157 type  1   force =     0.00001324    0.00001457    0.00001866
     atom  158 type  1   force =     0.00000597    0.00000061   -0.00000412
     atom  159 type  1   force =     0.00000644    0.00000911    0.00002036
     atom  160 type  1   force =    -0.00000650   -0.00000057    0.00001983
     atom  161 type  1   force =    -0.00000824   -0.00000184    0.00000725
     atom  162 type  1   force =    -0.00001051   -0.00000043    0.00000380
     atom  163 type  1   force =     0.00000228    0.00000980    0.00001011
     atom  164 type  1   force =     0.00000697    0.00001207   -0.00000043
     atom  165 type  1   force =     0.00001233    0.00000128    0.00000802
     atom  166 type  1   force =    -0.00000274    0.00001659    0.00001998
     atom  167 type  1   force =     0.00000222    0.00000726    0.00001892
     atom  168 type  1   force =     0.00000208   -0.00000937   -0.00000179
     atom  169 type  1   force =    -0.00000332    0.00000869    0.00000216
     atom  170 type  1   force =    -0.00000123    0.00002332    0.00000631
     atom  171 type  1   force =    -0.00000677    0.00000863    0.00001739
     atom  172 type  1   force =     0.00000027    0.00000823    0.00000649
     atom  173 type  1   force =    -0.00000688    0.00001222    0.00000291
     atom  174 type  1   force =     0.00000564    0.00000592    0.00001942
     atom  175 type  1   force =     0.00000157    0.00000812   -0.00000183
     atom  176 type  1   force =    -0.00000534    0.00000790    0.00001201
     atom  177 type  1   force =    -0.00000810    0.00000523    0.00000472
     atom  178 type  1   force =    -0.00000105    0.00000954    0.00000384
     atom  179 type  1   force =     0.00000135   -0.00000591    0.00000272
     atom  180 type  1   force =    -0.00000694   -0.00000737   -0.00000209
     atom  181 type  1   force =     0.00000660    0.00000332    0.00001739
     atom  182 type  1   force =     0.00000242    0.00000479    0.00001718
     atom  183 type  1   force =     0.00000039    0.00000652    0.00000324
     atom  184 type  1   force =     0.00000928    0.00001419    0.00001339
     atom  185 type  1   force =     0.00000652    0.00000171   -0.00000405
     atom  186 type  1   force =     0.00000935   -0.00000003   -0.00000145
     atom  187 type  1   force =    -0.00000112    0.00000517    0.00002060
     atom  188 type  1   force =     0.00000392   -0.00001064   -0.00000210
     atom  189 type  1   force =    -0.00000027   -0.00000422    0.00001457
     atom  190 type  1   force =     0.00000077   -0.00000043    0.00000164
     atom  191 type  1   force =    -0.00000613   -0.00000068    0.00001395
     atom  192 type  1   force =     0.00000018   -0.00000390    0.00002067
     atom  193 type  1   force =     0.00000204    0.00000185    0.00001814
     atom  194 type  1   force =     0.00000329    0.00000819    0.00002018
     atom  195 type  1   force =     0.00000040    0.00000798   -0.00000380
     atom  196 type  1   force =     0.00000042    0.00000513    0.00000026
     atom  197 type  1   force =    -0.00000539   -0.00000490    0.00001080
     atom  198 type  1   force =    -0.00000813   -0.00000236   -0.00000017
     atom  199 type  1   force =     0.00000370   -0.00000312   -0.00000155
     atom  200 type  1   force =    -0.00000044    0.00000173    0.00001217

     Total force =     0.429703     Total SCF correction =     0.000237


     Computing stress (Cartesian axis) and pressure


     negative rho (up, down):  4.067E-02 0.000E+00
          total   stress  (Ry/bohr**3)                   (kbar)     P=   -1.93
  -0.00001457   0.00000003   0.00000055         -2.14      0.00      0.08
   0.00000003  -0.00001594   0.00000023          0.00     -2.35      0.03
   0.00000055   0.00000023  -0.00000882          0.08      0.03     -1.30

     kinetic stress (kbar)    483.06      0.10      0.13
                                0.10    483.21     -0.01
                                0.13     -0.01    487.31

     local   stress (kbar) -52086.79   -518.87    510.39
                             -518.87 -51719.60    -63.98
                              510.39    -63.98  44854.38

     nonloc. stress (kbar)    597.53      0.00     -0.09
                                0.00    597.21      0.29
                               -0.09      0.29    594.63

     hartree stress (kbar)  26513.93    257.11   -246.54
                              257.11  26329.93     30.01
                             -246.54     30.01 -21488.05

     exc-cor stress (kbar)    768.19     -0.00     -0.01
                               -0.00    768.18      0.01
                               -0.01      0.01    767.78

     corecor stress (kbar)  -1148.37      0.00      0.00
                                0.00  -1148.35     -0.01
                                0.00     -0.01  -1148.24

     ewald   stress (kbar)  24870.30    261.66   -263.79
                              261.66  24687.08     33.72
                             -263.79     33.72 -24069.10

     hubbard stress (kbar)      0.00      0.00      0.00
                                0.00      0.00      0.00
                                0.00      0.00      0.00

     london  stress (kbar)      0.00      0.00      0.00
                                0.00      0.00      0.00
                                0.00      0.00      0.00

     DFT-D3  stress (kbar)      0.00      0.00      0.00
                                0.00      0.00      0.00
                                0.00      0.00      0.00

     XDM     stress (kbar)      0.00      0.00      0.00
                                0.00      0.00      0.00
                                0.00      0.00      0.00

     dft-nl  stress (kbar)      0.00      0.00      0.00
                                0.00      0.00      0.00
                                0.00      0.00      0.00

     TS-vdW  stress (kbar)      0.00      0.00      0.00
                                0.00      0.00      0.00
                                0.00      0.00      0.00



     Writing output data file scf.save/
 
     init_run     :    101.16s CPU    106.27s WALL (       1 calls)
     electrons    :  15295.73s CPU  15570.08s WALL (       1 calls)
     forces       :     15.19s CPU     15.86s WALL (       1 calls)
     stress       :    277.63s CPU    278.94s WALL (       1 calls)

     Called by init_run:
     wfcinit      :     63.57s CPU     64.70s WALL (       1 calls)
     wfcinit:atom :      0.06s CPU      0.10s WALL (       1 calls)
     wfcinit:wfcr :     63.40s CPU     64.42s WALL (       1 calls)
     potinit      :      1.37s CPU      1.42s WALL (       1 calls)
     hinit0       :      5.34s CPU      8.82s WALL (       1 calls)

     Called by electrons:
     c_bands      :   9938.88s CPU  10112.73s WALL (      37 calls)
     sum_band     :   1080.28s CPU   1103.86s WALL (      37 calls)
     v_of_rho     :     31.75s CPU     32.46s WALL (      38 calls)
     v_h          :      4.40s CPU      4.48s WALL (      38 calls)
     v_xc         :     28.63s CPU     29.29s WALL (      40 calls)
     newd         :     33.72s CPU     40.03s WALL (      38 calls)
     mix_rho      :   4205.13s CPU   4273.56s WALL (      37 calls)

     Called by c_bands:
     init_us_2    :      7.06s CPU      7.16s WALL (      75 calls)
     regterg      :   9896.85s CPU  10069.97s WALL (      55 calls)

     Called by sum_band:
     sum_band:bec :      0.90s CPU      0.90s WALL (      37 calls)
     addusdens    :     31.93s CPU     37.89s WALL (      37 calls)

     Called by *egterg:
     h_psi        :   6949.29s CPU   7061.10s WALL (     762 calls)
     s_psi        :    318.17s CPU    320.79s WALL (     762 calls)
     g_psi        :      2.47s CPU      2.48s WALL (     706 calls)
     rdiaghg      :   1350.89s CPU   1370.85s WALL (     761 calls)
     regterg:over :    457.52s CPU    467.01s WALL (     706 calls)
     regterg:upda :    505.46s CPU    509.38s WALL (     706 calls)
     regterg:last :    196.92s CPU    198.28s WALL (      56 calls)
     rdiaghg:chol :     35.40s CPU     36.12s WALL (     761 calls)
     rdiaghg:inve :     37.82s CPU     38.29s WALL (     761 calls)
     rdiaghg:para :    100.87s CPU    105.38s WALL (    1522 calls)

     Called by h_psi:
     h_psi:pot    :   6943.74s CPU   7055.50s WALL (     762 calls)
     h_psi:calbec :    349.08s CPU    354.50s WALL (     762 calls)
     vloc_psi     :   6271.33s CPU   6374.81s WALL (     762 calls)
     add_vuspsi   :    323.32s CPU    326.19s WALL (     762 calls)

     General routines
     calbec       :    445.04s CPU    452.05s WALL (     804 calls)
     fft          :     51.30s CPU     55.74s WALL (     436 calls)
     ffts         :   3815.47s CPU   3880.11s WALL (   87833 calls)
     fftw         :   6861.88s CPU   6978.78s WALL (  245174 calls)
     interpolate  :      5.84s CPU      5.93s WALL (      38 calls)
 
     Parallel routines
     fft_scatt_xy :    244.95s CPU    246.90s WALL (  333443 calls)
     fft_scatt_yz :   9738.05s CPU   9916.70s WALL (  333443 calls)
 
     PWSCF        :      4h22m CPU      4h28m WALL

 
   This run was terminated on:   3:47:26   6Dec2019            

=------------------------------------------------------------------------------=
   JOB DONE.
=------------------------------------------------------------------------------=
