
     Program PWSCF v.6.3 starts on  5Dec2019 at 23:18: 7 

     This program is part of the open-source Quantum ESPRESSO suite
     for quantum simulation of materials; please cite
         "P. Giannozzi et al., J. Phys.:Condens. Matter 21 395502 (2009);
         "P. Giannozzi et al., J. Phys.:Condens. Matter 29 465901 (2017);
          URL http://www.quantum-espresso.org", 
     in publications or presentations arising from this work. More details at
     http://www.quantum-espresso.org/quote

     Parallel version (MPI), running on   448 processors

     MPI processes distributed on    14 nodes
     R & G space division:  proc/nbgrp/npool/nimage =     448
     Reading input from scf.pwi
Warning: card &IONS ignored
Warning: card / ignored
Warning: card &CELL ignored
Warning: card    CELL_DOFREE      = '2DXY' ignored
Warning: card / ignored

     Current dimensions of program PWSCF are:
     Max number of different atomic species (ntypx) = 10
     Max number of k-points (npk) =  40000
     Max angular momentum in pseudopotentials (lmaxx) =  3

     gamma-point specific algorithms are used

     Subspace diagonalization in iterative solution of the eigenvalue problem:
     one sub-group per band group will be used
     scalapack distributed-memory algorithm (size of sub-group: 14* 14 procs)

 
     Parallelization info
     --------------------
     sticks:   dense  smooth     PW     G-vecs:    dense   smooth      PW
     Min         460     229     56               184940    65380    8140
     Max         462     232     58               184994    65412    8198
     Sum      206659  103297  25827             82864339 29296605 3662131
 


     bravais-lattice index     =            0
     lattice parameter (alat)  =      74.9798  a.u.
     unit-cell volume          =  613376.7080 (a.u.)^3
     number of atoms/cell      =          200
     number of atomic types    =            1
     number of electrons       =      2800.00
     number of Kohn-Sham states=         1680
     kinetic-energy cutoff     =      50.0000  Ry
     charge density cutoff     =     400.0000  Ry
     convergence threshold     =      2.0E-08
     mixing beta               =       0.4000
     number of iterations used =            8  local-TF  mixing
     Exchange-correlation      = SLA  PW   PSX  PSC ( 1  4 10  8 0 0)

     celldm(1)=  74.979798  celldm(2)=   0.000000  celldm(3)=   0.000000
     celldm(4)=   0.000000  celldm(5)=   0.000000  celldm(6)=   0.000000

     crystal axes: (cart. coord. in units of alat)
               a(1) = (   1.000000   0.000000   0.000000 )  
               a(2) = (   0.000000   1.154702   0.000000 )  
               a(3) = (   0.000000   0.000000   1.260157 )  

     reciprocal axes: (cart. coord. in units 2 pi/alat)
               b(1) = (  1.000000  0.000000  0.000000 )  
               b(2) = (  0.000000  0.866024  0.000000 )  
               b(3) = (  0.000000  0.000000  0.793552 )  


     PseudoPot. # 1 for Sn read from file:
     /n/home08/xiey/q-e/pseudo/sn_pbesol_v1.4.uspp.F.UPF
     MD5 check sum: 463fec1d5456f1e96ec1bfcad4b7b038
     Pseudo is Ultrasoft + core correction, Zval = 14.0
     Generated by new atomic code, or converted to UPF format
     Using radial grid of  891 points,  6 beta functions with: 
                l(1) =   0
                l(2) =   0
                l(3) =   1
                l(4) =   1
                l(5) =   2
                l(6) =   2
     Q(r) pseudized with  8 coefficients,  rinner =    1.350   1.350   1.350
                                                       1.350   1.350

     atomic species   valence    mass     pseudopotential
        Sn            14.00   118.71000     Sn( 1.00)

     No symmetry found


                                    s                        frac. trans.

      isym =  1     identity                                     

 cryst.   s( 1) = (     1          0          0      )
                  (     0          1          0      )
                  (     0          0          1      )

 cart.    s( 1) = (  1.0000000  0.0000000  0.0000000 )
                  (  0.0000000  1.0000000  0.0000000 )
                  (  0.0000000  0.0000000  1.0000000 )


   Cartesian axes

     site n.     atom                  positions (alat units)
         1           Sn  tau(   1) = (   0.9969706   0.0558000   1.2776000  )
         2           Sn  tau(   2) = (   0.0304960  -0.0062474   0.0219481  )
         3           Sn  tau(   3) = (   0.1024923   0.0057765   0.0092784  )
         4           Sn  tau(   4) = (   0.1340252   0.0587954   0.0405652  )
         5           Sn  tau(   5) = (   0.2034405   0.0573097   0.0201333  )
         6           Sn  tau(   6) = (   0.2405430   1.1563577   0.0359377  )
         7           Sn  tau(   7) = (   0.2962830   0.0025046   1.2495942  )
         8           Sn  tau(   8) = (   0.3344204   0.0538213   0.0224942  )
         9           Sn  tau(   9) = (   0.3982272   0.0610773   1.2512954  )
        10           Sn  tau(  10) = (   0.4319364   1.1602289   0.0257117  )
        11           Sn  tau(  11) = (   0.4963355  -0.0039613  -0.0012923  )
        12           Sn  tau(  12) = (   0.5382735   0.0503226   0.0254509  )
        13           Sn  tau(  13) = (   0.6105914   0.0517496   0.0391937  )
        14           Sn  tau(  14) = (   0.6389777   1.1585076  -0.0013914  )
        15           Sn  tau(  15) = (   0.7078679  -0.0036431   0.0030830  )
        16           Sn  tau(  16) = (   0.7324989   0.0581323   0.0279601  )
        17           Sn  tau(  17) = (   0.7990529   0.0621562   1.2692224  )
        18           Sn  tau(  18) = (   0.8309323   0.0007952   0.0281643  )
        19           Sn  tau(  19) = (   0.8957195   1.1541827   0.0081605  )
        20           Sn  tau(  20) = (   0.9273016   0.0605473   0.0103836  )
        21           Sn  tau(  21) = (   0.0032406   0.1673645   0.0166580  )
        22           Sn  tau(  22) = (   0.0326655   0.1112343   0.0451214  )
        23           Sn  tau(  23) = (   0.1018532   0.1164085   0.0217680  )
        24           Sn  tau(  24) = (   0.1394031   0.1765291   0.0328667  )
        25           Sn  tau(  25) = (   0.2009509   0.1701297   0.0010900  )
        26           Sn  tau(  26) = (   0.2371073   0.1153275   0.0325128  )
        27           Sn  tau(  27) = (   0.3030047   0.1162908   0.0092764  )
        28           Sn  tau(  28) = (   0.3260177   0.1748059   0.0341964  )
        29           Sn  tau(  29) = (   0.3958480   0.1705174   0.0120424  )
        30           Sn  tau(  30) = (   0.4289045   0.1123372   0.0245733  )
        31           Sn  tau(  31) = (   0.4968395   0.1092196   0.0164716  )
        32           Sn  tau(  32) = (   0.5269774   0.1718688   0.0258889  )
        33           Sn  tau(  33) = (   0.5939195   0.1744869   0.0046293  )
        34           Sn  tau(  34) = (   0.6333422   0.1165373   0.0232359  )
        35           Sn  tau(  35) = (   0.7031978   0.1201935   0.0367487  )
        36           Sn  tau(  36) = (   0.7331643   0.1693205   1.2573921  )
        37           Sn  tau(  37) = (   0.8022965   0.1794695   1.2692703  )
        38           Sn  tau(  38) = (   0.8376187   0.1170923   0.0257029  )
        39           Sn  tau(  39) = (   0.9005963   0.1226538   1.2525128  )
        40           Sn  tau(  40) = (   0.9372064   0.1767637   0.0155581  )
        41           Sn  tau(  41) = (   0.0140657   0.2876686   0.0025322  )
        42           Sn  tau(  42) = (   0.0361249   0.2254932   0.0310072  )
        43           Sn  tau(  43) = (   0.1019139   0.2313330   0.0138313  )
        44           Sn  tau(  44) = (   0.1342800   0.2935435   0.0161606  )
        45           Sn  tau(  45) = (   0.2042256   0.2953026  -0.0086933  )
        46           Sn  tau(  46) = (   0.2325259   0.2347302   0.0140529  )
        47           Sn  tau(  47) = (   0.3023041   0.2310873  -0.0000037  )
        48           Sn  tau(  48) = (   0.3330821   0.2893925   0.0288914  )
        49           Sn  tau(  49) = (   0.4024739   0.2886742   0.0089598  )
        50           Sn  tau(  50) = (   0.4337762   0.2287948   0.0228427  )
        51           Sn  tau(  51) = (   0.5007889   0.2280728   1.2588463  )
        52           Sn  tau(  52) = (   0.5360833   0.2851256   0.0245803  )
        53           Sn  tau(  53) = (   0.6021080   0.2866428   1.2572913  )
        54           Sn  tau(  54) = (   0.6336472   0.2287328   0.0118745  )
        55           Sn  tau(  55) = (   0.7015949   0.2286766   1.2491733  )
        56           Sn  tau(  56) = (   0.7366146   0.2848509   0.0028749  )
        57           Sn  tau(  57) = (   0.8056183   0.2880240   1.2501663  )
        58           Sn  tau(  58) = (   0.8381631   0.2388630   0.0279896  )
        59           Sn  tau(  59) = (   0.9029352   0.2343899   0.0023880  )
        60           Sn  tau(  60) = (   0.9419320   0.2913634   0.0158527  )
        61           Sn  tau(  61) = (   0.0079863   0.4026226   0.0030590  )
        62           Sn  tau(  62) = (   0.0363825   0.3489122   0.0319190  )
        63           Sn  tau(  63) = (   0.0948545   0.3466263  -0.0084309  )
        64           Sn  tau(  64) = (   0.1296666   0.4060150   0.0152670  )
        65           Sn  tau(  65) = (   0.2016745   0.4085101   1.2563461  )
        66           Sn  tau(  66) = (   0.2377329   0.3501598   0.0207604  )
        67           Sn  tau(  67) = (   0.3044539   0.3462684   1.2578054  )
        68           Sn  tau(  68) = (   0.3378203   0.4035980   0.0142087  )
        69           Sn  tau(  69) = (   0.4025395   0.4061108   1.2499244  )
        70           Sn  tau(  70) = (   0.4307367   0.3478638   0.0119405  )
        71           Sn  tau(  71) = (   0.5008443   0.3463012   0.0253319  )
        72           Sn  tau(  72) = (   0.5361312   0.3986506   1.2506754  )
        73           Sn  tau(  73) = (   0.6020324   0.4022673   0.0173652  )
        74           Sn  tau(  74) = (   0.6414854   0.3441337   1.2646556  )
        75           Sn  tau(  75) = (   0.7081804   0.3451116   1.2436589  )
        76           Sn  tau(  76) = (   0.7378798   0.4007803   0.0113068  )
        77           Sn  tau(  77) = (   0.8058854   0.3973653   1.2533142  )
        78           Sn  tau(  78) = (   0.8435238   0.3425988   0.0150608  )
        79           Sn  tau(  79) = (   0.9095535   0.3473698   1.2485105  )
        80           Sn  tau(  80) = (   0.9400644   0.4069324   0.0186024  )
        81           Sn  tau(  81) = (   0.9988659   0.5234465   1.2569107  )
        82           Sn  tau(  82) = (   0.0323528   0.4662177   0.0183726  )
        83           Sn  tau(  83) = (   0.0988298   0.4638385   1.2515298  )
        84           Sn  tau(  84) = (   0.1316866   0.5237111   1.2438353  )
        85           Sn  tau(  85) = (   0.1998289   0.5146229   1.2292755  )
        86           Sn  tau(  86) = (   0.2312312   0.4716213   0.0125813  )
        87           Sn  tau(  87) = (   0.2951791   0.4571900   1.2544584  )
        88           Sn  tau(  88) = (   0.3326436   0.5144742   1.2461918  )
        89           Sn  tau(  89) = (   0.4028520   0.5263247   1.2359064  )
        90           Sn  tau(  90) = (   0.4360294   0.4678156   0.0007542  )
        91           Sn  tau(  91) = (   0.5038712   0.4601463  -0.0067563  )
        92           Sn  tau(  92) = (   0.5393471   0.5149127   1.2294015  )
        93           Sn  tau(  93) = (   0.6024785   0.5203692   1.2562403  )
        94           Sn  tau(  94) = (   0.6368404   0.4576739   1.2558169  )
        95           Sn  tau(  95) = (   0.7087147   0.4622230   1.2445738  )
        96           Sn  tau(  96) = (   0.7270576   0.5213571   0.0194977  )
        97           Sn  tau(  97) = (   0.7970064   0.5181286   0.0119921  )
        98           Sn  tau(  98) = (   0.8310155   0.4588685   0.0130694  )
        99           Sn  tau(  99) = (   0.8987615   0.4605193   1.2552019  )
       100           Sn  tau( 100) = (   0.9327253   0.5167072   0.0105602  )
       101           Sn  tau( 101) = (  -0.0027800   0.6396329   1.2699760  )
       102           Sn  tau( 102) = (   0.0256906   0.5805215   0.0294758  )
       103           Sn  tau( 103) = (   0.0895956   0.5827671   1.2510258  )
       104           Sn  tau( 104) = (   0.1345510   0.6379418   0.0031278  )
       105           Sn  tau( 105) = (   0.2011722   0.6334783   1.2380663  )
       106           Sn  tau( 106) = (   0.2308290   0.5725296   1.2550356  )
       107           Sn  tau( 107) = (   0.2999148   0.5772174   1.2525027  )
       108           Sn  tau( 108) = (   0.3339643   0.6303859   0.0237272  )
       109           Sn  tau( 109) = (   0.3962336   0.6363162  -0.0059150  )
       110           Sn  tau( 110) = (   0.4360622   0.5802443   1.2700390  )
       111           Sn  tau( 111) = (   0.5005772   0.5745433   1.2456651  )
       112           Sn  tau( 112) = (   0.5255635   0.6354240   0.0118998  )
       113           Sn  tau( 113) = (   0.5936120   0.6318376   1.2465220  )
       114           Sn  tau( 114) = (   0.6288586   0.5807584   0.0193641  )
       115           Sn  tau( 115) = (   0.6947169   0.5801283   1.2566410  )
       116           Sn  tau( 116) = (   0.7298324   0.6341538   0.0203513  )
       117           Sn  tau( 117) = (   0.7974802   0.6372286  -0.0017724  )
       118           Sn  tau( 118) = (   0.8327797   0.5778273   0.0277628  )
       119           Sn  tau( 119) = (   0.8995705   0.5805341   0.0013888  )
       120           Sn  tau( 120) = (   0.9324077   0.6333977   0.0324715  )
       121           Sn  tau( 121) = (  -0.0019631   0.7496824   1.2563663  )
       122           Sn  tau( 122) = (   0.0356710   0.6953546   0.0209256  )
       123           Sn  tau( 123) = (   0.1026100   0.6972498   1.2595394  )
       124           Sn  tau( 124) = (   0.1327497   0.7518373   0.0313542  )
       125           Sn  tau( 125) = (   0.2046069   0.7446267   0.0210461  )
       126           Sn  tau( 126) = (   0.2337125   0.6825035   0.0173969  )
       127           Sn  tau( 127) = (   0.3004290   0.6899409   0.0050373  )
       128           Sn  tau( 128) = (   0.3343070   0.7424517   0.0356766  )
       129           Sn  tau( 129) = (   0.3977484   0.7522380   1.2673876  )
       130           Sn  tau( 130) = (   0.4273394   0.6911255   0.0250954  )
       131           Sn  tau( 131) = (   0.4934169   0.6943515   1.2555573  )
       132           Sn  tau( 132) = (   0.5287341   0.7510812   1.2722745  )
       133           Sn  tau( 133) = (   0.5909531   0.7523086   1.2373102  )
       134           Sn  tau( 134) = (   0.6269482   0.6947925  -0.0062480  )
       135           Sn  tau( 135) = (   0.6940037   0.6955159   0.0129548  )
       136           Sn  tau( 136) = (   0.7301021   0.7526741   0.0310243  )
       137           Sn  tau( 137) = (   0.7953959   0.7536393   0.0036800  )
       138           Sn  tau( 138) = (   0.8275778   0.6967306   0.0226925  )
       139           Sn  tau( 139) = (   0.8975114   0.6916648   0.0147647  )
       140           Sn  tau( 140) = (   0.9316919   0.7541535   0.0202536  )
       141           Sn  tau( 141) = (   0.0027801   0.8625068  -0.0071965  )
       142           Sn  tau( 142) = (   0.0342659   0.8084284   0.0189157  )
       143           Sn  tau( 143) = (   0.1055361   0.8090787   0.0090181  )
       144           Sn  tau( 144) = (   0.1335847   0.8658991   0.0316004  )
       145           Sn  tau( 145) = (   0.2035851   0.8662016   0.0222045  )
       146           Sn  tau( 146) = (   0.2372336   0.8059762   0.0275264  )
       147           Sn  tau( 147) = (   0.3074884   0.8042926   0.0173640  )
       148           Sn  tau( 148) = (   0.3320186   0.8642635   0.0371885  )
       149           Sn  tau( 149) = (   0.3998957   0.8622044   0.0141400  )
       150           Sn  tau( 150) = (   0.4382170   0.8082596   0.0332311  )
       151           Sn  tau( 151) = (   0.4968748   0.8100994  -0.0063077  )
       152           Sn  tau( 152) = (   0.5289559   0.8658109   0.0243987  )
       153           Sn  tau( 153) = (   0.5973118   0.8642685   1.2674355  )
       154           Sn  tau( 154) = (   0.6260611   0.8047513   0.0125362  )
       155           Sn  tau( 155) = (   0.6946060   0.8088518   1.2690586  )
       156           Sn  tau( 156) = (   0.7329324   0.8645029   0.0312214  )
       157           Sn  tau( 157) = (   0.7971122   0.8659319   0.0039304  )
       158           Sn  tau( 158) = (   0.8379438   0.8073724   0.0240589  )
       159           Sn  tau( 159) = (   0.8994647   0.8080731   1.2451938  )
       160           Sn  tau( 160) = (   0.9311778   0.8681296  -0.0048928  )
       161           Sn  tau( 161) = (   0.9997102   0.9808028   1.2601644  )
       162           Sn  tau( 162) = (   0.0384786   0.9205799   0.0055180  )
       163           Sn  tau( 163) = (   0.1072950   0.9237706  -0.0034161  )
       164           Sn  tau( 164) = (   0.1305596   0.9884242   0.0191882  )
       165           Sn  tau( 165) = (   0.2014439   0.9845555   0.0051996  )
       166           Sn  tau( 166) = (   0.2389620   0.9265127   0.0280705  )
       167           Sn  tau( 167) = (   0.3043783   0.9188031   0.0016552  )
       168           Sn  tau( 168) = (   0.3336543   0.9819697  -0.0041640  )
       169           Sn  tau( 169) = (   0.4033258   0.9806742   0.0073144  )
       170           Sn  tau( 170) = (   0.4312862   0.9223441   0.0279717  )
       171           Sn  tau( 171) = (   0.4931523   0.9184326   1.2558824  )
       172           Sn  tau( 172) = (   0.5243185   0.9756109   0.0154446  )
       173           Sn  tau( 173) = (   0.5944412   0.9820528   0.0037998  )
       174           Sn  tau( 174) = (   0.6257309   0.9246300   0.0277030  )
       175           Sn  tau( 175) = (   0.6943842   0.9227801   0.0216794  )
       176           Sn  tau( 176) = (   0.7256563   0.9799358   0.0423408  )
       177           Sn  tau( 177) = (   0.7884852   0.9877210   0.0147829  )
       178           Sn  tau( 178) = (   0.8268267   0.9290305   0.0085793  )
       179           Sn  tau( 179) = (   0.8979575   0.9305326   1.2568754  )
       180           Sn  tau( 180) = (   0.9330151   0.9849084   0.0225417  )
       181           Sn  tau( 181) = (   0.9924995   1.0985367  -0.0090183  )
       182           Sn  tau( 182) = (   0.0299650   1.0422984   0.0137737  )
       183           Sn  tau( 183) = (   0.0985894   1.0415953   1.2509955  )
       184           Sn  tau( 184) = (   0.1386384   1.1003917   0.0109538  )
       185           Sn  tau( 185) = (   0.2090608   1.0983124   0.0088525  )
       186           Sn  tau( 186) = (   0.2372339   1.0371318   0.0311710  )
       187           Sn  tau( 187) = (   0.2948339   1.0411189  -0.0068581  )
       188           Sn  tau( 188) = (   0.3381555   1.0968960  -0.0078971  )
       189           Sn  tau( 189) = (   0.3946484   1.0974479   0.0340162  )
       190           Sn  tau( 190) = (   0.4301671   1.0433393   0.0120442  )
       191           Sn  tau( 191) = (   0.4987172   1.0386616   0.0112692  )
       192           Sn  tau( 192) = (   0.5374997   1.0998851   0.0282593  )
       193           Sn  tau( 193) = (   0.6026574   1.0952805  -0.0044967  )
       194           Sn  tau( 194) = (   0.6339421   1.0378400   0.0318784  )
       195           Sn  tau( 195) = (   0.6992686   1.0337495   0.0083980  )
       196           Sn  tau( 196) = (   0.7340515   1.0965709   0.0410975  )
       197           Sn  tau( 197) = (   0.8007465   1.0921805   0.0172147  )
       198           Sn  tau( 198) = (   0.8347960   1.0355868   0.0416956  )
       199           Sn  tau( 199) = (   0.8931211   1.0435208   0.0020674  )
       200           Sn  tau( 200) = (   0.9303789   1.0979318   0.0265306  )

   Crystallographic axes

     site n.     atom                  positions (cryst. coord.)
         1           Sn  tau(   1) = (  0.9969706  0.0483242  1.0138420  )
         2           Sn  tau(   2) = (  0.0304960 -0.0054104  0.0174170  )
         3           Sn  tau(   3) = (  0.1024923  0.0050026  0.0073629  )
         4           Sn  tau(   4) = (  0.1340252  0.0509182  0.0321906  )
         5           Sn  tau(   5) = (  0.2034405  0.0496316  0.0159768  )
         6           Sn  tau(   6) = (  0.2405430  1.0014340  0.0285184  )
         7           Sn  tau(   7) = (  0.2962830  0.0021691  0.9916180  )
         8           Sn  tau(   8) = (  0.3344204  0.0466106  0.0178503  )
         9           Sn  tau(   9) = (  0.3982272  0.0528944  0.9929680  )
        10           Sn  tau(  10) = (  0.4319364  1.0047866  0.0204036  )
        11           Sn  tau(  11) = (  0.4963355 -0.0034305 -0.0010255  )
        12           Sn  tau(  12) = (  0.5382735  0.0435806  0.0201966  )
        13           Sn  tau(  13) = (  0.6105914  0.0448164  0.0311022  )
        14           Sn  tau(  14) = (  0.6389777  1.0032958 -0.0011041  )
        15           Sn  tau(  15) = (  0.7078679 -0.0031550  0.0024466  )
        16           Sn  tau(  16) = (  0.7324989  0.0503440  0.0221878  )
        17           Sn  tau(  17) = (  0.7990529  0.0538288  1.0071940  )
        18           Sn  tau(  18) = (  0.8309323  0.0006886  0.0223498  )
        19           Sn  tau(  19) = (  0.8957195  0.9995504  0.0064758  )
        20           Sn  tau(  20) = (  0.9273016  0.0524354  0.0082399  )
        21           Sn  tau(  21) = (  0.0032406  0.1449417  0.0132190  )
        22           Sn  tau(  22) = (  0.0326655  0.0963316  0.0358062  )
        23           Sn  tau(  23) = (  0.1018532  0.1008126  0.0172741  )
        24           Sn  tau(  24) = (  0.1394031  0.1528785  0.0260814  )
        25           Sn  tau(  25) = (  0.2009509  0.1473365  0.0008650  )
        26           Sn  tau(  26) = (  0.2371073  0.0998765  0.0258006  )
        27           Sn  tau(  27) = (  0.3030047  0.1007107  0.0073613  )
        28           Sn  tau(  28) = (  0.3260177  0.1513862  0.0271366  )
        29           Sn  tau(  29) = (  0.3958480  0.1476722  0.0095562  )
        30           Sn  tau(  30) = (  0.4289045  0.0972867  0.0195002  )
        31           Sn  tau(  31) = (  0.4968395  0.0945868  0.0130711  )
        32           Sn  tau(  32) = (  0.5269774  0.1488425  0.0205442  )
        33           Sn  tau(  33) = (  0.5939195  0.1511099  0.0036736  )
        34           Sn  tau(  34) = (  0.6333422  0.1009241  0.0184389  )
        35           Sn  tau(  35) = (  0.7031978  0.1040905  0.0291620  )
        36           Sn  tau(  36) = (  0.7331643  0.1466357  0.9978060  )
        37           Sn  tau(  37) = (  0.8022965  0.1554250  1.0072320  )
        38           Sn  tau(  38) = (  0.8376187  0.1014048  0.0203966  )
        39           Sn  tau(  39) = (  0.9005963  0.1062212  0.9939340  )
        40           Sn  tau(  40) = (  0.9372064  0.1530817  0.0123462  )
        41           Sn  tau(  41) = (  0.0140657  0.2491280  0.0020094  )
        42           Sn  tau(  42) = (  0.0361249  0.1952826  0.0246058  )
        43           Sn  tau(  43) = (  0.1019139  0.2003401  0.0109758  )
        44           Sn  tau(  44) = (  0.1342800  0.2542158  0.0128243  )
        45           Sn  tau(  45) = (  0.2042256  0.2557393 -0.0068986  )
        46           Sn  tau(  46) = (  0.2325259  0.2032821  0.0111517  )
        47           Sn  tau(  47) = (  0.3023041  0.2001272 -0.0000030  )
        48           Sn  tau(  48) = (  0.3330821  0.2506210  0.0229268  )
        49           Sn  tau(  49) = (  0.4024739  0.2499989  0.0071100  )
        50           Sn  tau(  50) = (  0.4337762  0.1981419  0.0181269  )
        51           Sn  tau(  51) = (  0.5007889  0.1975166  0.9989600  )
        52           Sn  tau(  52) = (  0.5360833  0.2469257  0.0195057  )
        53           Sn  tau(  53) = (  0.6021080  0.2482397  0.9977260  )
        54           Sn  tau(  54) = (  0.6336472  0.1980882  0.0094230  )
        55           Sn  tau(  55) = (  0.7015949  0.1980395  0.9912840  )
        56           Sn  tau(  56) = (  0.7366146  0.2466878  0.0022814  )
        57           Sn  tau(  57) = (  0.8056183  0.2494358  0.9920720  )
        58           Sn  tau(  58) = (  0.8381631  0.2068612  0.0222112  )
        59           Sn  tau(  59) = (  0.9029352  0.2029874  0.0018950  )
        60           Sn  tau(  60) = (  0.9419320  0.2523278  0.0125800  )
        61           Sn  tau(  61) = (  0.0079863  0.3486810  0.0024275  )
        62           Sn  tau(  62) = (  0.0363825  0.3021665  0.0253294  )
        63           Sn  tau(  63) = (  0.0948545  0.3001868 -0.0066904  )
        64           Sn  tau(  64) = (  0.1296666  0.3516189  0.0121151  )
        65           Sn  tau(  65) = (  0.2016745  0.3537797  0.9969760  )
        66           Sn  tau(  66) = (  0.2377329  0.3032469  0.0164744  )
        67           Sn  tau(  67) = (  0.3044539  0.2998769  0.9981340  )
        68           Sn  tau(  68) = (  0.3378203  0.3495257  0.0112754  )
        69           Sn  tau(  69) = (  0.4025395  0.3517018  0.9918800  )
        70           Sn  tau(  70) = (  0.4307367  0.3012585  0.0094754  )
        71           Sn  tau(  71) = (  0.5008443  0.2999053  0.0201022  )
        72           Sn  tau(  72) = (  0.5361312  0.3452412  0.9924760  )
        73           Sn  tau(  73) = (  0.6020324  0.3483733  0.0137802  )
        74           Sn  tau(  74) = (  0.6414854  0.2980282  1.0035700  )
        75           Sn  tau(  75) = (  0.7081804  0.2988751  0.9869080  )
        76           Sn  tau(  76) = (  0.7378798  0.3470855  0.0089725  )
        77           Sn  tau(  77) = (  0.8058854  0.3441280  0.9945700  )
        78           Sn  tau(  78) = (  0.8435238  0.2966990  0.0119516  )
        79           Sn  tau(  79) = (  0.9095535  0.3008307  0.9907580  )
        80           Sn  tau(  80) = (  0.9400644  0.3524134  0.0147620  )
        81           Sn  tau(  81) = (  0.9988659  0.4533174  0.9974240  )
        82           Sn  tau(  82) = (  0.0323528  0.4037559  0.0145796  )
        83           Sn  tau(  83) = (  0.0988298  0.4016955  0.9931540  )
        84           Sn  tau(  84) = (  0.1316866  0.4535466  0.9870480  )
        85           Sn  tau(  85) = (  0.1998289  0.4456759  0.9754940  )
        86           Sn  tau(  86) = (  0.2312312  0.4084355  0.0099839  )
        87           Sn  tau(  87) = (  0.2951791  0.3959376  0.9954780  )
        88           Sn  tau(  88) = (  0.3326436  0.4455472  0.9889180  )
        89           Sn  tau(  89) = (  0.4028520  0.4558100  0.9807560  )
        90           Sn  tau(  90) = (  0.4360294  0.4051397  0.0005985  )
        91           Sn  tau(  91) = (  0.5038712  0.3984979 -0.0053615  )
        92           Sn  tau(  92) = (  0.5393471  0.4459270  0.9755940  )
        93           Sn  tau(  93) = (  0.6024785  0.4506524  0.9968920  )
        94           Sn  tau(  94) = (  0.6368404  0.3963567  0.9965560  )
        95           Sn  tau(  95) = (  0.7087147  0.4002964  0.9876340  )
        96           Sn  tau(  96) = (  0.7270576  0.4515080  0.0154724  )
        97           Sn  tau(  97) = (  0.7970064  0.4487120  0.0095163  )
        98           Sn  tau(  98) = (  0.8310155  0.3973913  0.0103712  )
        99           Sn  tau(  99) = (  0.8987615  0.3988209  0.9960680  )
       100           Sn  tau( 100) = (  0.9327253  0.4474810  0.0083801  )
       101           Sn  tau( 101) = ( -0.0027800  0.5539377  1.0077920  )
       102           Sn  tau( 102) = (  0.0256906  0.5027458  0.0233906  )
       103           Sn  tau( 103) = (  0.0895956  0.5046905  0.9927540  )
       104           Sn  tau( 104) = (  0.1345510  0.5524732  0.0024821  )
       105           Sn  tau( 105) = (  0.2011722  0.5486077  0.9824700  )
       106           Sn  tau( 106) = (  0.2308290  0.4958246  0.9959360  )
       107           Sn  tau( 107) = (  0.2999148  0.4998843  0.9939260  )
       108           Sn  tau( 108) = (  0.3339643  0.5459296  0.0188288  )
       109           Sn  tau( 109) = (  0.3962336  0.5510654 -0.0046939  )
       110           Sn  tau( 110) = (  0.4360622  0.5025057  1.0078420  )
       111           Sn  tau( 111) = (  0.5005772  0.4975685  0.9885000  )
       112           Sn  tau( 112) = (  0.5255635  0.5502927  0.0094431  )
       113           Sn  tau( 113) = (  0.5936120  0.5471868  0.9891800  )
       114           Sn  tau( 114) = (  0.6288586  0.5029509  0.0153664  )
       115           Sn  tau( 115) = (  0.6947169  0.5024053  0.9972100  )
       116           Sn  tau( 116) = (  0.7298324  0.5491926  0.0161498  )
       117           Sn  tau( 117) = (  0.7974802  0.5518555 -0.0014065  )
       118           Sn  tau( 118) = (  0.8327797  0.5004125  0.0220312  )
       119           Sn  tau( 119) = (  0.8995705  0.5027567  0.0011021  )
       120           Sn  tau( 120) = (  0.9324077  0.5485378  0.0257678  )
       121           Sn  tau( 121) = ( -0.0019631  0.6492433  0.9969920  )
       122           Sn  tau( 122) = (  0.0356710  0.6021940  0.0166055  )
       123           Sn  tau( 123) = (  0.1026100  0.6038354  0.9995100  )
       124           Sn  tau( 124) = (  0.1327497  0.6511094  0.0248812  )
       125           Sn  tau( 125) = (  0.2046069  0.6448649  0.0167012  )
       126           Sn  tau( 126) = (  0.2337125  0.5910647  0.0138054  )
       127           Sn  tau( 127) = (  0.3004290  0.5975057  0.0039973  )
       128           Sn  tau( 128) = (  0.3343070  0.6429812  0.0283112  )
       129           Sn  tau( 129) = (  0.3977484  0.6514565  1.0057380  )
       130           Sn  tau( 130) = (  0.4273394  0.5985315  0.0199145  )
       131           Sn  tau( 131) = (  0.4934169  0.6013253  0.9963500  )
       132           Sn  tau( 132) = (  0.5287341  0.6504546  1.0096160  )
       133           Sn  tau( 133) = (  0.5909531  0.6515176  0.9818700  )
       134           Sn  tau( 134) = (  0.6269482  0.6017073 -0.0049581  )
       135           Sn  tau( 135) = (  0.6940037  0.6023337  0.0102803  )
       136           Sn  tau( 136) = (  0.7301021  0.6518341  0.0246194  )
       137           Sn  tau( 137) = (  0.7953959  0.6526700  0.0029202  )
       138           Sn  tau( 138) = (  0.8275778  0.6033857  0.0180077  )
       139           Sn  tau( 139) = (  0.8975114  0.5989986  0.0117165  )
       140           Sn  tau( 140) = (  0.9316919  0.6531153  0.0160723  )
       141           Sn  tau( 141) = (  0.0027801  0.7469519 -0.0057108  )
       142           Sn  tau( 142) = (  0.0342659  0.7001187  0.0150106  )
       143           Sn  tau( 143) = (  0.1055361  0.7006819  0.0071564  )
       144           Sn  tau( 144) = (  0.1335847  0.7498898  0.0250766  )
       145           Sn  tau( 145) = (  0.2035851  0.7501517  0.0176204  )
       146           Sn  tau( 146) = (  0.2372336  0.6979950  0.0218436  )
       147           Sn  tau( 147) = (  0.3074884  0.6965370  0.0137792  )
       148           Sn  tau( 148) = (  0.3320186  0.7484732  0.0295110  )
       149           Sn  tau( 149) = (  0.3998957  0.7466900  0.0112209  )
       150           Sn  tau( 150) = (  0.4382170  0.6999725  0.0263706  )
       151           Sn  tau( 151) = (  0.4968748  0.7015658 -0.0050055  )
       152           Sn  tau( 152) = (  0.5289559  0.7498134  0.0193616  )
       153           Sn  tau( 153) = (  0.5973118  0.7484776  1.0057760  )
       154           Sn  tau( 154) = (  0.6260611  0.6969342  0.0099481  )
       155           Sn  tau( 155) = (  0.6946060  0.7004854  1.0070640  )
       156           Sn  tau( 156) = (  0.7329324  0.7486806  0.0247758  )
       157           Sn  tau( 157) = (  0.7971122  0.7499182  0.0031190  )
       158           Sn  tau( 158) = (  0.8379438  0.6992042  0.0190920  )
       159           Sn  tau( 159) = (  0.8994647  0.6998110  0.9881260  )
       160           Sn  tau( 160) = (  0.9311778  0.7518214 -0.0038827  )
       161           Sn  tau( 161) = (  0.9997102  0.8493991  1.0000060  )
       162           Sn  tau( 162) = (  0.0384786  0.7972446  0.0043788  )
       163           Sn  tau( 163) = (  0.1072950  0.8000079 -0.0027108  )
       164           Sn  tau( 164) = (  0.1305596  0.8559995  0.0152269  )
       165           Sn  tau( 165) = (  0.2014439  0.8526491  0.0041261  )
       166           Sn  tau( 166) = (  0.2389620  0.8023826  0.0222754  )
       167           Sn  tau( 167) = (  0.3043783  0.7957058  0.0013135  )
       168           Sn  tau( 168) = (  0.3336543  0.8504097 -0.0033044  )
       169           Sn  tau( 169) = (  0.4033258  0.8492878  0.0058043  )
       170           Sn  tau( 170) = (  0.4312862  0.7987725  0.0221970  )
       171           Sn  tau( 171) = (  0.4931523  0.7953850  0.9966080  )
       172           Sn  tau( 172) = (  0.5243185  0.8449029  0.0122561  )
       173           Sn  tau( 173) = (  0.5944412  0.8504817  0.0030153  )
       174           Sn  tau( 174) = (  0.6257309  0.8007521  0.0219838  )
       175           Sn  tau( 175) = (  0.6943842  0.7991501  0.0172037  )
       176           Sn  tau( 176) = (  0.7256563  0.8486483  0.0335996  )
       177           Sn  tau( 177) = (  0.7884852  0.8553905  0.0117310  )
       178           Sn  tau( 178) = (  0.8268267  0.8045631  0.0068081  )
       179           Sn  tau( 179) = (  0.8979575  0.8058639  0.9973960  )
       180           Sn  tau( 180) = (  0.9330151  0.8529547  0.0178880  )
       181           Sn  tau( 181) = (  0.9924995  0.9513596 -0.0071565  )
       182           Sn  tau( 182) = (  0.0299650  0.9026559  0.0109302  )
       183           Sn  tau( 183) = (  0.0985894  0.9020469  0.9927300  )
       184           Sn  tau( 184) = (  0.1386384  0.9529660  0.0086924  )
       185           Sn  tau( 185) = (  0.2090608  0.9511653  0.0070249  )
       186           Sn  tau( 186) = (  0.2372339  0.8981814  0.0247358  )
       187           Sn  tau( 187) = (  0.2948339  0.9016344 -0.0054422  )
       188           Sn  tau( 188) = (  0.3381555  0.9499387 -0.0062667  )
       189           Sn  tau( 189) = (  0.3946484  0.9504167  0.0269936  )
       190           Sn  tau( 190) = (  0.4301671  0.9035573  0.0095577  )
       191           Sn  tau( 191) = (  0.4987172  0.8995063  0.0089427  )
       192           Sn  tau( 192) = (  0.5374997  0.9525273  0.0224252  )
       193           Sn  tau( 193) = (  0.6026574  0.9485396 -0.0035684  )
       194           Sn  tau( 194) = (  0.6339421  0.8987947  0.0252972  )
       195           Sn  tau( 195) = (  0.6992686  0.8952523  0.0066643  )
       196           Sn  tau( 196) = (  0.7340515  0.9496571  0.0326130  )
       197           Sn  tau( 197) = (  0.8007465  0.9458549  0.0136608  )
       198           Sn  tau( 198) = (  0.8347960  0.8968434  0.0330876  )
       199           Sn  tau( 199) = (  0.8931211  0.9037144  0.0016406  )
       200           Sn  tau( 200) = (  0.9303789  0.9508357  0.0210534  )

     number of k points=     1  Marzari-Vanderbilt smearing, width (Ry)=  0.0200
                       cart. coord. in units 2pi/alat
        k(    1) = (   0.0000000   0.0000000   0.0000000), wk =   2.0000000

                       cryst. coord.
        k(    1) = (   0.0000000   0.0000000   0.0000000), wk =   2.0000000

     Dense  grid: 41432170 G-vectors     FFT dimensions: ( 480, 576, 625)

     Smooth grid: 14648303 G-vectors     FFT dimensions: ( 360, 400, 432)

     Dynamical RAM for                 wfc:     104.77 MB

     Dynamical RAM for     wfc (w. buffer):     104.77 MB

     Dynamical RAM for           str. fact:       1.41 MB

     Dynamical RAM for           local pot:       0.00 MB

     Dynamical RAM for          nlocal pot:     224.51 MB

     Dynamical RAM for                qrad:      19.12 MB

     Dynamical RAM for          rho,v,vnew:      16.89 MB

     Dynamical RAM for               rhoin:       5.63 MB

     Dynamical RAM for            rho*nmix:      22.58 MB

     Dynamical RAM for           G-vectors:       5.54 MB

     Dynamical RAM for          h,s,v(r/c):       5.27 MB

     Dynamical RAM for          <psi|beta>:      46.14 MB

     Dynamical RAM for                 psi:     419.08 MB

     Dynamical RAM for                hpsi:     419.08 MB

     Dynamical RAM for                spsi:     419.08 MB

     Dynamical RAM for      wfcinit/wfcrot:     298.68 MB

     Dynamical RAM for           addusdens:     544.66 MB

     Dynamical RAM for          addusforce:    1107.74 MB

     Dynamical RAM for         addusstress:     283.62 MB

     Estimated static dynamical RAM per process >     424.36 MB

     Estimated max dynamical RAM per process >       1.69 GB

     Estimated total dynamical RAM >     758.19 GB

     Initial potential from superposition of free atoms

     starting charge 2599.99167, renormalised to 2800.00000

     negative rho (up, down):  1.848E-01 0.000E+00
     Starting wfcs are 1800 atomic wfcs

     total cpu time spent up to now is      106.7 secs

     Self-consistent Calculation

     iteration #  1     ecut=    50.00 Ry     beta= 0.40
     Davidson diagonalization with overlap
     ethr =  1.00E-02,  avg # of iterations =  8.0

     negative rho (up, down):  2.842E+00 0.000E+00

     total cpu time spent up to now is      735.5 secs

     total energy              =  -31818.34127008 Ry
     Harris-Foulkes estimate   =  -31886.69106977 Ry
     estimated scf accuracy    <     277.21397662 Ry

     iteration #  2     ecut=    50.00 Ry     beta= 0.40
     Davidson diagonalization with overlap
     ethr =  9.90E-03,  avg # of iterations =  1.0

     negative rho (up, down):  1.081E+01 0.000E+00

     total cpu time spent up to now is     1132.4 secs

     total energy              =  -31742.73012977 Ry
     Harris-Foulkes estimate   =  -31824.53989465 Ry
     estimated scf accuracy    <     138.59294903 Ry

     iteration #  3     ecut=    50.00 Ry     beta= 0.40
     Davidson diagonalization with overlap
     ethr =  4.95E-03,  avg # of iterations =  3.0

     negative rho (up, down):  1.067E+01 0.000E+00

     total cpu time spent up to now is     1473.4 secs

     total energy              =  -31775.67404060 Ry
     Harris-Foulkes estimate   =  -31778.25074846 Ry
     estimated scf accuracy    <       7.23323475 Ry

     iteration #  4     ecut=    50.00 Ry     beta= 0.40
     Davidson diagonalization with overlap
     ethr =  2.58E-04,  avg # of iterations = 14.0

     negative rho (up, down):  1.155E+01 0.000E+00

     total cpu time spent up to now is     1880.4 secs

     total energy              =  -31775.08139740 Ry
     Harris-Foulkes estimate   =  -31776.52852682 Ry
     estimated scf accuracy    <       4.17683416 Ry

     iteration #  5     ecut=    50.00 Ry     beta= 0.40
     Davidson diagonalization with overlap
     ethr =  1.49E-04,  avg # of iterations =  9.0

     negative rho (up, down):  9.831E+00 0.000E+00

     total cpu time spent up to now is     2151.0 secs

     total energy              =  -31775.05674747 Ry
     Harris-Foulkes estimate   =  -31775.37155581 Ry
     estimated scf accuracy    <       1.45794825 Ry

     iteration #  6     ecut=    50.00 Ry     beta= 0.40
     Davidson diagonalization with overlap
     ethr =  5.21E-05,  avg # of iterations =  6.0

     negative rho (up, down):  7.274E+00 0.000E+00

     total cpu time spent up to now is     2388.6 secs

     total energy              =  -31774.66292016 Ry
     Harris-Foulkes estimate   =  -31775.13844765 Ry
     estimated scf accuracy    <       1.05328177 Ry

     iteration #  7     ecut=    50.00 Ry     beta= 0.40
     Davidson diagonalization with overlap
     ethr =  3.76E-05,  avg # of iterations = 17.0

     negative rho (up, down):  5.974E+00 0.000E+00

     total cpu time spent up to now is     2803.9 secs

     total energy              =  -31774.79696809 Ry
     Harris-Foulkes estimate   =  -31774.80844711 Ry
     estimated scf accuracy    <       1.01707602 Ry

     iteration #  8     ecut=    50.00 Ry     beta= 0.40
     Davidson diagonalization with overlap
     ethr =  3.63E-05,  avg # of iterations =  6.0

     negative rho (up, down):  5.098E+00 0.000E+00

     total cpu time spent up to now is     3011.6 secs

     total energy              =  -31774.35496945 Ry
     Harris-Foulkes estimate   =  -31774.80090395 Ry
     estimated scf accuracy    <       0.88591527 Ry

     iteration #  9     ecut=    50.00 Ry     beta= 0.40
     Davidson diagonalization with overlap
     ethr =  3.16E-05,  avg # of iterations = 20.0

     negative rho (up, down):  4.443E+00 0.000E+00

     total cpu time spent up to now is     3323.7 secs

     total energy              =  -31774.40400039 Ry
     Harris-Foulkes estimate   =  -31774.39721026 Ry
     estimated scf accuracy    <       0.40728181 Ry

     iteration # 10     ecut=    50.00 Ry     beta= 0.40
     Davidson diagonalization with overlap
     c_bands:  2 eigenvalues not converged
     ethr =  1.45E-05,  avg # of iterations = 60.0

     negative rho (up, down):  3.785E+00 0.000E+00

     total cpu time spent up to now is     3956.3 secs

     total energy              =  -31774.36619831 Ry
     Harris-Foulkes estimate   =  -31774.41675801 Ry
     estimated scf accuracy    <       0.30551625 Ry

     iteration # 11     ecut=    50.00 Ry     beta= 0.40
     Davidson diagonalization with overlap
     c_bands:  5 eigenvalues not converged
     ethr =  1.09E-05,  avg # of iterations = 20.0

     negative rho (up, down):  4.182E+00 0.000E+00

     total cpu time spent up to now is     4244.0 secs

     total energy              =  -31774.29902264 Ry
     Harris-Foulkes estimate   =  -31774.37512515 Ry
     estimated scf accuracy    <       0.23304197 Ry

     iteration # 12     ecut=    50.00 Ry     beta= 0.40
     Davidson diagonalization with overlap
     c_bands:  3 eigenvalues not converged
     ethr =  8.32E-06,  avg # of iterations = 40.0

     negative rho (up, down):  3.230E+00 0.000E+00

     total cpu time spent up to now is     4777.3 secs

     total energy              =  -31774.26212163 Ry
     Harris-Foulkes estimate   =  -31774.30464111 Ry
     estimated scf accuracy    <       0.16099711 Ry

     iteration # 13     ecut=    50.00 Ry     beta= 0.40
     Davidson diagonalization with overlap
     c_bands:  2 eigenvalues not converged
     ethr =  5.75E-06,  avg # of iterations = 40.0

     negative rho (up, down):  3.105E+00 0.000E+00

     total cpu time spent up to now is     5239.1 secs

     total energy              =  -31774.19488286 Ry
     Harris-Foulkes estimate   =  -31774.26489622 Ry
     estimated scf accuracy    <       0.14030107 Ry

     iteration # 14     ecut=    50.00 Ry     beta= 0.40
     Davidson diagonalization with overlap
     c_bands:  2 eigenvalues not converged
     ethr =  5.01E-06,  avg # of iterations = 40.0

     negative rho (up, down):  2.979E+00 0.000E+00

     total cpu time spent up to now is     5784.1 secs

     total energy              =  -31774.17845022 Ry
     Harris-Foulkes estimate   =  -31774.20010055 Ry
     estimated scf accuracy    <       0.06744798 Ry

     iteration # 15     ecut=    50.00 Ry     beta= 0.40
     Davidson diagonalization with overlap
     ethr =  2.41E-06,  avg # of iterations = 60.0

     negative rho (up, down):  2.054E+00 0.000E+00

     total cpu time spent up to now is     6482.6 secs

     total energy              =  -31774.11600911 Ry
     Harris-Foulkes estimate   =  -31774.17883348 Ry
     estimated scf accuracy    <       0.05468862 Ry

     iteration # 16     ecut=    50.00 Ry     beta= 0.40
     Davidson diagonalization with overlap
     c_bands:  3 eigenvalues not converged
     ethr =  1.95E-06,  avg # of iterations = 40.0

     negative rho (up, down):  1.755E+00 0.000E+00

     total cpu time spent up to now is     7057.2 secs

     total energy              =  -31774.12533982 Ry
     Harris-Foulkes estimate   =  -31774.11896004 Ry
     estimated scf accuracy    <       0.02078375 Ry

     iteration # 17     ecut=    50.00 Ry     beta= 0.40
     Davidson diagonalization with overlap
     ethr =  7.42E-07,  avg # of iterations = 32.0

     negative rho (up, down):  7.510E-01 0.000E+00

     total cpu time spent up to now is     7565.4 secs

     total energy              =  -31774.13784777 Ry
     Harris-Foulkes estimate   =  -31774.12585012 Ry
     estimated scf accuracy    <       0.01226212 Ry

     iteration # 18     ecut=    50.00 Ry     beta= 0.40
     Davidson diagonalization with overlap
     ethr =  4.38E-07,  avg # of iterations = 27.0

     negative rho (up, down):  5.059E-01 0.000E+00

     total cpu time spent up to now is     8256.6 secs

     total energy              =  -31774.14059139 Ry
     Harris-Foulkes estimate   =  -31774.13934780 Ry
     estimated scf accuracy    <       0.00369575 Ry

     iteration # 19     ecut=    50.00 Ry     beta= 0.40
     Davidson diagonalization with overlap
     ethr =  1.32E-07,  avg # of iterations = 33.0

     negative rho (up, down):  2.373E-01 0.000E+00

     total cpu time spent up to now is     8767.4 secs

     total energy              =  -31774.14381291 Ry
     Harris-Foulkes estimate   =  -31774.14072200 Ry
     estimated scf accuracy    <       0.00154251 Ry

     iteration # 20     ecut=    50.00 Ry     beta= 0.40
     Davidson diagonalization with overlap
     ethr =  5.51E-08,  avg # of iterations = 37.0

     negative rho (up, down):  1.707E-01 0.000E+00

     total cpu time spent up to now is     9341.9 secs

     total energy              =  -31774.14387286 Ry
     Harris-Foulkes estimate   =  -31774.14397453 Ry
     estimated scf accuracy    <       0.00027975 Ry

     iteration # 21     ecut=    50.00 Ry     beta= 0.40
     Davidson diagonalization with overlap
     c_bands:  3 eigenvalues not converged
     ethr =  9.99E-09,  avg # of iterations = 20.0

     negative rho (up, down):  1.120E-01 0.000E+00

     total cpu time spent up to now is     9746.3 secs

     total energy              =  -31774.14387614 Ry
     Harris-Foulkes estimate   =  -31774.14388976 Ry
     estimated scf accuracy    <       0.00011690 Ry

     iteration # 22     ecut=    50.00 Ry     beta= 0.40
     Davidson diagonalization with overlap
     c_bands:  2 eigenvalues not converged
     ethr =  4.17E-09,  avg # of iterations = 20.0

     negative rho (up, down):  7.053E-02 0.000E+00

     total cpu time spent up to now is    10198.2 secs

     total energy              =  -31774.14380375 Ry
     Harris-Foulkes estimate   =  -31774.14388104 Ry
     estimated scf accuracy    <       0.00006044 Ry

     iteration # 23     ecut=    50.00 Ry     beta= 0.40
     Davidson diagonalization with overlap
     c_bands:  2 eigenvalues not converged
     ethr =  2.16E-09,  avg # of iterations = 20.0

     negative rho (up, down):  4.471E-02 0.000E+00

     total cpu time spent up to now is    10603.0 secs

     total energy              =  -31774.14379373 Ry
     Harris-Foulkes estimate   =  -31774.14380787 Ry
     estimated scf accuracy    <       0.00002762 Ry

     iteration # 24     ecut=    50.00 Ry     beta= 0.40
     Davidson diagonalization with overlap
     c_bands:  2 eigenvalues not converged
     ethr =  9.87E-10,  avg # of iterations = 20.0

     negative rho (up, down):  4.367E-02 0.000E+00

     total cpu time spent up to now is    11082.8 secs

     total energy              =  -31774.14379607 Ry
     Harris-Foulkes estimate   =  -31774.14379751 Ry
     estimated scf accuracy    <       0.00000470 Ry

     iteration # 25     ecut=    50.00 Ry     beta= 0.40
     Davidson diagonalization with overlap
     ethr =  1.68E-10,  avg # of iterations = 17.0

     negative rho (up, down):  4.053E-02 0.000E+00

     total cpu time spent up to now is    11446.5 secs

     total energy              =  -31774.14380461 Ry
     Harris-Foulkes estimate   =  -31774.14379641 Ry
     estimated scf accuracy    <       0.00000224 Ry

     iteration # 26     ecut=    50.00 Ry     beta= 0.40
     Davidson diagonalization with overlap
     ethr =  7.99E-11,  avg # of iterations =  2.0

     negative rho (up, down):  4.022E-02 0.000E+00

     total cpu time spent up to now is    11846.8 secs

     total energy              =  -31774.14380540 Ry
     Harris-Foulkes estimate   =  -31774.14380484 Ry
     estimated scf accuracy    <       0.00000038 Ry

     iteration # 27     ecut=    50.00 Ry     beta= 0.40
     Davidson diagonalization with overlap
     ethr =  1.36E-11,  avg # of iterations =  3.0

     negative rho (up, down):  4.025E-02 0.000E+00

     total cpu time spent up to now is    12335.4 secs

     total energy              =  -31774.14380523 Ry
     Harris-Foulkes estimate   =  -31774.14380546 Ry
     estimated scf accuracy    <       0.00000015 Ry

     iteration # 28     ecut=    50.00 Ry     beta= 0.40
     Davidson diagonalization with overlap
     ethr =  5.23E-12,  avg # of iterations =  2.0

     negative rho (up, down):  4.032E-02 0.000E+00

     total cpu time spent up to now is    12763.4 secs

     total energy              =  -31774.14380484 Ry
     Harris-Foulkes estimate   =  -31774.14380524 Ry
     estimated scf accuracy    <       0.00000007 Ry

     iteration # 29     ecut=    50.00 Ry     beta= 0.40
     Davidson diagonalization with overlap
     ethr =  2.68E-12,  avg # of iterations =  2.0

     negative rho (up, down):  4.033E-02 0.000E+00

     total cpu time spent up to now is    13122.2 secs

     total energy              =  -31774.14380445 Ry
     Harris-Foulkes estimate   =  -31774.14380485 Ry
     estimated scf accuracy    <       0.00000004 Ry

     iteration # 30     ecut=    50.00 Ry     beta= 0.40
     Davidson diagonalization with overlap
     ethr =  1.38E-12,  avg # of iterations =  2.0

     negative rho (up, down):  4.022E-02 0.000E+00

     total cpu time spent up to now is    13291.8 secs

     End of self-consistent calculation

          k = 0.0000 0.0000 0.0000 (****** PWs)   bands (ev):

   -25.0896 -25.0864 -25.0807 -25.0803 -25.0681 -25.0507 -25.0499 -25.0396
   -25.0346 -25.0266 -25.0263 -25.0240 -25.0230 -25.0191 -25.0156 -25.0128
   -25.0082 -25.0035 -24.9999 -24.9956 -24.9939 -24.9924 -24.9876 -24.9872
   -24.9851 -24.9842 -24.9817 -24.9786 -24.9775 -24.9773 -24.9766 -24.9732
   -24.9696 -24.9673 -24.9666 -24.9662 -24.9648 -24.9597 -24.9580 -24.9578
   -24.9570 -24.9561 -24.9553 -24.9547 -24.9539 -24.9526 -24.9523 -24.9517
   -24.9515 -24.9505 -24.9482 -24.9458 -24.9440 -24.9436 -24.9417 -24.9412
   -24.9397 -24.9396 -24.9387 -24.9379 -24.9367 -24.9361 -24.9335 -24.9317
   -24.9310 -24.9292 -24.9284 -24.9267 -24.9259 -24.9253 -24.9239 -24.9234
   -24.9227 -24.9204 -24.9198 -24.9191 -24.9188 -24.9186 -24.9175 -24.9161
   -24.9154 -24.9148 -24.9145 -24.9141 -24.9134 -24.9127 -24.9101 -24.9097
   -24.9083 -24.9071 -24.9067 -24.9056 -24.9051 -24.9034 -24.9028 -24.9004
   -24.9002 -24.8998 -24.8991 -24.8986 -24.8985 -24.8977 -24.8967 -24.8959
   -24.8948 -24.8940 -24.8926 -24.8923 -24.8919 -24.8916 -24.8910 -24.8897
   -24.8892 -24.8885 -24.8880 -24.8876 -24.8873 -24.8864 -24.8855 -24.8848
   -24.8832 -24.8828 -24.8822 -24.8821 -24.8812 -24.8802 -24.8796 -24.8781
   -24.8773 -24.8769 -24.8761 -24.8760 -24.8756 -24.8738 -24.8737 -24.8728
   -24.8723 -24.8721 -24.8718 -24.8714 -24.8711 -24.8710 -24.8704 -24.8688
   -24.8685 -24.8665 -24.8660 -24.8658 -24.8656 -24.8634 -24.8629 -24.8624
   -24.8619 -24.8613 -24.8610 -24.8601 -24.8597 -24.8588 -24.8578 -24.8571
   -24.8565 -24.8555 -24.8553 -24.8547 -24.8537 -24.8533 -24.8526 -24.8512
   -24.8507 -24.8504 -24.8499 -24.8493 -24.8482 -24.8475 -24.8469 -24.8463
   -24.8457 -24.8451 -24.8433 -24.8429 -24.8424 -24.8417 -24.8408 -24.8401
   -24.8397 -24.8393 -24.8386 -24.8375 -24.8363 -24.8355 -24.8352 -24.8348
   -24.8344 -24.8338 -24.8330 -24.8325 -24.8314 -24.8312 -24.8304 -24.8302
   -24.8294 -24.8289 -24.8276 -24.8275 -24.8269 -24.8266 -24.8264 -24.8259
   -24.8249 -24.8249 -24.8246 -24.8240 -24.8238 -24.8228 -24.8223 -24.8218
   -24.8208 -24.8199 -24.8192 -24.8184 -24.8178 -24.8168 -24.8165 -24.8165
   -24.8156 -24.8149 -24.8144 -24.8141 -24.8131 -24.8126 -24.8118 -24.8116
   -24.8113 -24.8100 -24.8095 -24.8094 -24.8085 -24.8079 -24.8076 -24.8070
   -24.8061 -24.8052 -24.8050 -24.8045 -24.8041 -24.8038 -24.8034 -24.8030
   -24.8022 -24.8015 -24.8012 -24.8003 -24.7998 -24.7995 -24.7994 -24.7987
   -24.7984 -24.7972 -24.7962 -24.7959 -24.7950 -24.7949 -24.7944 -24.7938
   -24.7934 -24.7927 -24.7922 -24.7913 -24.7912 -24.7905 -24.7899 -24.7894
   -24.7877 -24.7876 -24.7868 -24.7861 -24.7858 -24.7855 -24.7838 -24.7836
   -24.7827 -24.7821 -24.7817 -24.7811 -24.7806 -24.7800 -24.7797 -24.7793
   -24.7787 -24.7781 -24.7776 -24.7774 -24.7768 -24.7764 -24.7756 -24.7750
   -24.7740 -24.7732 -24.7729 -24.7724 -24.7717 -24.7711 -24.7706 -24.7698
   -24.7691 -24.7680 -24.7675 -24.7668 -24.7661 -24.7656 -24.7645 -24.7640
   -24.7633 -24.7629 -24.7614 -24.7610 -24.7603 -24.7595 -24.7590 -24.7587
   -24.7578 -24.7569 -24.7557 -24.7552 -24.7550 -24.7539 -24.7537 -24.7535
   -24.7532 -24.7524 -24.7518 -24.7507 -24.7502 -24.7492 -24.7485 -24.7478
   -24.7473 -24.7470 -24.7463 -24.7462 -24.7452 -24.7444 -24.7440 -24.7434
   -24.7431 -24.7424 -24.7417 -24.7417 -24.7406 -24.7404 -24.7393 -24.7391
   -24.7384 -24.7382 -24.7380 -24.7371 -24.7364 -24.7355 -24.7349 -24.7347
   -24.7340 -24.7330 -24.7321 -24.7314 -24.7307 -24.7300 -24.7299 -24.7286
   -24.7280 -24.7270 -24.7267 -24.7259 -24.7256 -24.7250 -24.7248 -24.7235
   -24.7231 -24.7228 -24.7218 -24.7212 -24.7211 -24.7207 -24.7196 -24.7190
   -24.7189 -24.7187 -24.7173 -24.7166 -24.7161 -24.7159 -24.7155 -24.7149
   -24.7146 -24.7140 -24.7135 -24.7125 -24.7121 -24.7115 -24.7108 -24.7106
   -24.7099 -24.7091 -24.7084 -24.7082 -24.7076 -24.7069 -24.7060 -24.7053
   -24.7049 -24.7042 -24.7033 -24.7031 -24.7024 -24.7016 -24.7010 -24.7002
   -24.6993 -24.6978 -24.6972 -24.6966 -24.6956 -24.6955 -24.6946 -24.6943
   -24.6936 -24.6929 -24.6922 -24.6912 -24.6900 -24.6899 -24.6890 -24.6884
   -24.6873 -24.6866 -24.6864 -24.6860 -24.6853 -24.6849 -24.6840 -24.6834
   -24.6826 -24.6817 -24.6811 -24.6809 -24.6804 -24.6789 -24.6787 -24.6777
   -24.6772 -24.6763 -24.6749 -24.6745 -24.6740 -24.6733 -24.6729 -24.6728
   -24.6721 -24.6718 -24.6710 -24.6704 -24.6702 -24.6696 -24.6685 -24.6682
   -24.6674 -24.6661 -24.6658 -24.6654 -24.6649 -24.6640 -24.6631 -24.6629
   -24.6618 -24.6613 -24.6606 -24.6600 -24.6588 -24.6585 -24.6584 -24.6581
   -24.6576 -24.6573 -24.6565 -24.6562 -24.6547 -24.6543 -24.6541 -24.6530
   -24.6524 -24.6520 -24.6516 -24.6508 -24.6506 -24.6503 -24.6495 -24.6485
   -24.6478 -24.6470 -24.6463 -24.6454 -24.6453 -24.6448 -24.6441 -24.6432
   -24.6431 -24.6427 -24.6418 -24.6414 -24.6404 -24.6400 -24.6398 -24.6392
   -24.6388 -24.6378 -24.6372 -24.6366 -24.6358 -24.6353 -24.6343 -24.6340
   -24.6332 -24.6328 -24.6321 -24.6314 -24.6311 -24.6306 -24.6299 -24.6296
   -24.6289 -24.6282 -24.6273 -24.6260 -24.6256 -24.6255 -24.6245 -24.6243
   -24.6231 -24.6224 -24.6220 -24.6217 -24.6212 -24.6206 -24.6204 -24.6198
   -24.6194 -24.6183 -24.6178 -24.6176 -24.6171 -24.6169 -24.6161 -24.6153
   -24.6148 -24.6142 -24.6139 -24.6130 -24.6128 -24.6124 -24.6117 -24.6102
   -24.6101 -24.6095 -24.6089 -24.6081 -24.6077 -24.6073 -24.6066 -24.6064
   -24.6057 -24.6049 -24.6046 -24.6042 -24.6037 -24.6032 -24.6027 -24.6018
   -24.6011 -24.6009 -24.6007 -24.6001 -24.5994 -24.5992 -24.5988 -24.5980
   -24.5975 -24.5972 -24.5970 -24.5966 -24.5963 -24.5954 -24.5953 -24.5947
   -24.5938 -24.5935 -24.5928 -24.5923 -24.5918 -24.5906 -24.5903 -24.5896
   -24.5894 -24.5891 -24.5887 -24.5883 -24.5880 -24.5871 -24.5863 -24.5861
   -24.5857 -24.5853 -24.5846 -24.5845 -24.5839 -24.5836 -24.5833 -24.5827
   -24.5824 -24.5814 -24.5813 -24.5810 -24.5807 -24.5803 -24.5798 -24.5794
   -24.5789 -24.5784 -24.5776 -24.5774 -24.5768 -24.5766 -24.5760 -24.5756
   -24.5751 -24.5747 -24.5744 -24.5741 -24.5740 -24.5733 -24.5728 -24.5722
   -24.5719 -24.5711 -24.5707 -24.5702 -24.5699 -24.5692 -24.5688 -24.5683
   -24.5677 -24.5676 -24.5664 -24.5663 -24.5659 -24.5656 -24.5651 -24.5647
   -24.5644 -24.5638 -24.5630 -24.5625 -24.5625 -24.5619 -24.5618 -24.5612
   -24.5609 -24.5603 -24.5597 -24.5596 -24.5588 -24.5584 -24.5583 -24.5582
   -24.5570 -24.5567 -24.5560 -24.5556 -24.5554 -24.5548 -24.5541 -24.5538
   -24.5532 -24.5523 -24.5523 -24.5518 -24.5517 -24.5513 -24.5510 -24.5508
   -24.5504 -24.5497 -24.5491 -24.5488 -24.5483 -24.5478 -24.5476 -24.5471
   -24.5467 -24.5463 -24.5456 -24.5453 -24.5443 -24.5438 -24.5435 -24.5431
   -24.5427 -24.5421 -24.5419 -24.5418 -24.5413 -24.5409 -24.5406 -24.5400
   -24.5397 -24.5390 -24.5385 -24.5379 -24.5375 -24.5374 -24.5368 -24.5365
   -24.5361 -24.5355 -24.5352 -24.5348 -24.5345 -24.5341 -24.5335 -24.5329
   -24.5326 -24.5324 -24.5321 -24.5320 -24.5310 -24.5307 -24.5298 -24.5296
   -24.5292 -24.5287 -24.5284 -24.5277 -24.5269 -24.5262 -24.5260 -24.5252
   -24.5249 -24.5247 -24.5243 -24.5236 -24.5234 -24.5231 -24.5225 -24.5218
   -24.5216 -24.5213 -24.5207 -24.5204 -24.5200 -24.5193 -24.5185 -24.5178
   -24.5174 -24.5166 -24.5165 -24.5162 -24.5156 -24.5149 -24.5141 -24.5137
   -24.5133 -24.5129 -24.5119 -24.5116 -24.5110 -24.5106 -24.5104 -24.5098
   -24.5090 -24.5087 -24.5079 -24.5075 -24.5068 -24.5065 -24.5060 -24.5058
   -24.5051 -24.5049 -24.5048 -24.5041 -24.5036 -24.5031 -24.5023 -24.5012
   -24.5008 -24.5001 -24.4997 -24.4988 -24.4984 -24.4979 -24.4969 -24.4965
   -24.4960 -24.4954 -24.4949 -24.4942 -24.4933 -24.4930 -24.4923 -24.4918
   -24.4916 -24.4906 -24.4902 -24.4898 -24.4894 -24.4879 -24.4876 -24.4871
   -24.4864 -24.4857 -24.4850 -24.4841 -24.4839 -24.4823 -24.4822 -24.4816
   -24.4804 -24.4798 -24.4784 -24.4782 -24.4776 -24.4771 -24.4766 -24.4751
   -24.4738 -24.4738 -24.4732 -24.4725 -24.4720 -24.4706 -24.4702 -24.4690
   -24.4678 -24.4675 -24.4669 -24.4661 -24.4653 -24.4645 -24.4638 -24.4629
   -24.4623 -24.4618 -24.4606 -24.4605 -24.4602 -24.4589 -24.4581 -24.4577
   -24.4576 -24.4564 -24.4556 -24.4551 -24.4541 -24.4534 -24.4530 -24.4519
   -24.4514 -24.4504 -24.4497 -24.4488 -24.4472 -24.4467 -24.4462 -24.4456
   -24.4453 -24.4448 -24.4430 -24.4423 -24.4421 -24.4406 -24.4402 -24.4390
   -24.4386 -24.4374 -24.4372 -24.4363 -24.4355 -24.4341 -24.4333 -24.4327
   -24.4318 -24.4306 -24.4299 -24.4296 -24.4277 -24.4271 -24.4264 -24.4256
   -24.4250 -24.4242 -24.4241 -24.4238 -24.4226 -24.4221 -24.4207 -24.4201
   -24.4196 -24.4191 -24.4182 -24.4174 -24.4162 -24.4153 -24.4152 -24.4138
   -24.4132 -24.4120 -24.4109 -24.4102 -24.4092 -24.4091 -24.4090 -24.4063
   -24.4052 -24.4041 -24.4026 -24.4008 -24.4000 -24.3997 -24.3989 -24.3986
   -24.3966 -24.3963 -24.3942 -24.3933 -24.3932 -24.3924 -24.3916 -24.3910
   -24.3901 -24.3888 -24.3882 -24.3875 -24.3871 -24.3848 -24.3842 -24.3834
   -24.3821 -24.3810 -24.3799 -24.3783 -24.3779 -24.3762 -24.3749 -24.3737
   -24.3731 -24.3721 -24.3704 -24.3691 -24.3687 -24.3674 -24.3667 -24.3647
   -24.3641 -24.3621 -24.3615 -24.3597 -24.3585 -24.3569 -24.3562 -24.3552
   -24.3544 -24.3539 -24.3531 -24.3522 -24.3508 -24.3487 -24.3478 -24.3472
   -24.3450 -24.3446 -24.3423 -24.3404 -24.3396 -24.3382 -24.3372 -24.3370
   -24.3364 -24.3356 -24.3341 -24.3338 -24.3302 -24.3272 -24.3241 -24.3237
   -24.3229 -24.3222 -24.3210 -24.3121 -24.3118 -24.3093 -24.2960 -24.2895
   -12.9874 -12.9522 -12.9064 -12.8915 -12.8626 -12.8378 -12.8314 -12.8203
   -12.7652 -12.7333 -12.6971 -12.6781 -12.6495 -12.6212 -12.6076 -12.5919
   -12.5764 -12.5620 -12.5559 -12.5450 -12.4780 -12.4357 -12.4074 -12.3547
   -12.3502 -12.3311 -12.3271 -12.2957 -12.2810 -12.2431 -12.2316 -12.2047
   -12.1674 -12.1550 -12.1285 -12.1086 -12.0918 -12.0570 -12.0378 -12.0079
   -11.9899 -11.9621 -11.9534 -11.9335 -11.9162 -11.8874 -11.8818 -11.8553
   -11.8366 -11.8089 -11.7907 -11.7266 -11.7110 -11.6845 -11.6680 -11.6600
   -11.6465 -11.6341 -11.6167 -11.6051 -11.5850 -11.5837 -11.5740 -11.5418
   -11.5157 -11.4624 -11.4450 -11.4323 -11.4154 -11.3889 -11.3831 -11.3679
   -11.3601 -11.3566 -11.3432 -11.3331 -11.3290 -11.3153 -11.2991 -11.2942
   -11.2779 -11.2636 -11.2388 -11.2236 -11.2042 -11.1996 -11.1410 -11.1134
   -11.0704 -11.0614 -11.0388 -11.0085 -10.9804 -10.9732 -10.9427 -10.9383
   -10.8148 -10.7767 -10.6684 -10.6323 -10.3262 -10.2920 -10.1647 -10.1557
   -10.0352 -10.0195 -10.0099  -9.9969  -9.9631  -9.9420  -9.8844  -9.8525
    -9.8343  -9.8297  -9.7908  -9.7822  -9.7633  -9.7573  -9.7412  -9.7271
    -9.7234  -9.7100  -9.6849  -9.6745  -9.6555  -9.6044  -9.6019  -9.5980
    -9.5574  -9.5126  -9.5064  -9.4954  -9.4845  -9.4781  -9.4416  -9.3517
    -9.3318  -9.3265  -9.3186  -9.2950  -9.2799  -9.2677  -9.2521  -9.2403
    -9.2271  -9.1966  -9.1846  -9.1574  -9.1300  -8.9463  -8.9290  -8.9120
    -8.8878  -8.7881  -8.7540  -8.7421  -8.7176  -8.6920  -8.6701  -8.6445
    -8.6092  -8.6052  -8.5725  -8.4836  -8.4234  -8.3877  -8.3635  -8.3398
    -8.2661  -8.1807  -8.1616  -8.1066  -8.0994  -8.0083  -7.9746  -7.9410
    -7.9359  -7.9019  -7.8846  -7.5726  -7.5409  -7.5246  -7.4860  -7.4288
    -7.4018  -7.3912  -7.3690  -7.3354  -7.2741  -7.1597  -7.1342  -6.9460
    -6.9268  -6.8594  -6.8387  -6.7404  -6.7038  -6.6564  -6.6091  -6.5000
    -6.3744  -6.3674  -6.3157  -6.3039  -6.1951  -6.1939  -6.1840  -6.1544
    -6.1309  -6.1078  -6.0744  -6.0601  -6.0421  -6.0320  -5.9928  -5.9874
    -5.9669  -5.9339  -5.9260  -5.9215  -5.7808  -5.7648  -5.7401  -5.7313
    -5.6833  -5.6765  -5.6457  -5.6348  -5.6125  -5.5982  -5.5833  -5.5546
    -5.5471  -5.5413  -5.5211  -5.4998  -5.4994  -5.4835  -5.4633  -5.4271
    -5.4193  -5.4176  -5.3990  -5.3763  -5.3419  -5.3306  -5.3056  -5.2891
    -5.2766  -5.2689  -5.2624  -5.2275  -5.2178  -5.1978  -5.1860  -5.1806
    -5.1758  -5.1578  -5.1555  -5.1387  -5.1360  -5.1273  -5.1198  -5.1150
    -5.1120  -5.1027  -5.1013  -5.0819  -5.0705  -5.0690  -5.0646  -5.0625
    -5.0439  -5.0373  -5.0242  -5.0196  -5.0133  -5.0039  -4.9999  -4.9905
    -4.9857  -4.9766  -4.9698  -4.9640  -4.9536  -4.9483  -4.9423  -4.9319
    -4.9190  -4.9078  -4.9031  -4.8892  -4.8869  -4.8722  -4.8662  -4.8619
    -4.8474  -4.8418  -4.8361  -4.8308  -4.8265  -4.8067  -4.8052  -4.7935
    -4.7893  -4.7685  -4.7643  -4.7541  -4.7363  -4.7329  -4.7232  -4.7120
    -4.7043  -4.6953  -4.6912  -4.6832  -4.6829  -4.6721  -4.6654  -4.6523
    -4.6393  -4.6341  -4.6162  -4.6125  -4.6035  -4.5986  -4.5788  -4.5748
    -4.5656  -4.5512  -4.5410  -4.5262  -4.5166  -4.5128  -4.5038  -4.4885
    -4.4727  -4.4648  -4.4533  -4.4514  -4.4435  -4.4241  -4.4184  -4.4126
    -4.4079  -4.3931  -4.3826  -4.3625  -4.3562  -4.3287  -4.3217  -4.3091
    -4.3018  -4.2918  -4.2791  -4.2698  -4.2607  -4.2547  -4.2455  -4.2420
    -4.2297  -4.2132  -4.2086  -4.1941  -4.1848  -4.1680  -4.1662  -4.1444
    -4.1353  -4.1245  -4.0888  -4.0832  -4.0767  -4.0488  -4.0424  -4.0308
    -4.0101  -3.9842  -3.9795  -3.9734  -3.9542  -3.9358  -3.9204  -3.9138
    -3.8941  -3.8821  -3.8599  -3.8393  -3.8275  -3.7851  -3.7682  -3.7630
    -3.7394  -3.7303  -3.7100  -3.6790  -3.6342  -3.5989  -3.5659  -3.4719
    -3.4585  -3.3986  -3.3627  -3.3129  -3.2660  -3.2405  -3.2308  -3.2018
    -3.1726  -3.1389  -3.1157  -3.1076  -3.1012  -3.0807  -3.0666  -3.0516
    -3.0255  -3.0133  -2.9817  -2.9694  -2.9556  -2.9391  -2.9111  -2.9055
    -2.9021  -2.8847  -2.8800  -2.8557  -2.8359  -2.8267  -2.8138  -2.7932
    -2.7842  -2.7794  -2.7738  -2.7525  -2.7326  -2.7105  -2.6930  -2.6839
    -2.6750  -2.6727  -2.6452  -2.6335  -2.6173  -2.6082  -2.5953  -2.5458
    -2.5266  -2.5119  -2.5015  -2.4884  -2.4650  -2.4515  -2.4337  -2.4115
    -2.3938  -2.3809  -2.3582  -2.3454  -2.3249  -2.3192  -2.3077  -2.2841
    -2.2673  -2.2599  -2.2442  -2.2244  -2.2041  -2.1963  -2.1749  -2.1624
    -2.1457  -2.1302  -2.1244  -2.1135  -2.0986  -2.0911  -2.0719  -2.0379
    -2.0150  -2.0073  -1.9994  -1.9826  -1.9724  -1.9661  -1.9571  -1.9471
    -1.9407  -1.9358  -1.9038  -1.8865  -1.8676  -1.8638  -1.8472  -1.8348
    -1.8308  -1.8147  -1.8065  -1.7902  -1.7823  -1.7753  -1.7497  -1.7360
    -1.7206  -1.7049  -1.6958  -1.6820  -1.6753  -1.6690  -1.6534  -1.6441
    -1.6222  -1.6096  -1.5982  -1.5942  -1.5728  -1.5708  -1.5597  -1.5468
    -1.5189  -1.5132  -1.5096  -1.5000  -1.4738  -1.4617  -1.4538  -1.4489
    -1.4288  -1.4124  -1.3918  -1.3873  -1.3732  -1.3679  -1.3618  -1.3503
    -1.3339  -1.3115  -1.3061  -1.2942  -1.2753  -1.2696  -1.2545  -1.2513
    -1.2340  -1.2237  -1.2118  -1.2010  -1.1846  -1.1762  -1.1650  -1.1519
    -1.1308  -1.1176  -1.0947  -1.0862  -1.0788  -1.0474  -1.0259  -0.9937
    -0.9891  -0.9749  -0.9323  -0.9262  -0.9114  -0.8906  -0.8812  -0.8589
    -0.8471  -0.8369  -0.8005  -0.7755  -0.7588  -0.7303  -0.6263  -0.6031
    -0.5715  -0.5260  -0.4937  -0.4779  -0.4660  -0.4455  -0.4439  -0.4353
    -0.4227  -0.3978  -0.3897  -0.3856  -0.3714  -0.3561  -0.3487  -0.3362
    -0.3267  -0.3033  -0.2932  -0.2829  -0.2688  -0.2544  -0.2428  -0.2361
    -0.2193  -0.2098  -0.1878  -0.1698  -0.1671  -0.1640  -0.1571  -0.1349
    -0.0920  -0.0632  -0.0502  -0.0480  -0.0244  -0.0140  -0.0033   0.0112
     0.0215   0.0287   0.0565   0.0691   0.0740   0.0808   0.1018   0.1087
     0.1337   0.1423   0.1595   0.1667   0.1682   0.1826   0.2056   0.2117
     0.2169   0.2224   0.2549   0.2730   0.2837   0.2901   0.3074   0.3127
     0.3356   0.3454   0.3622   0.3740   0.3855   0.4008   0.4060   0.4221
     0.4319   0.4385   0.4578   0.4617   0.4697   0.4737   0.4837   0.4878
     0.4957   0.5028   0.5052   0.5178   0.5238   0.5360   0.5522   0.5592
     0.5623   0.5716   0.5754   0.5770   0.5819   0.5904   0.5932   0.6028
     0.6052   0.6131   0.6243   0.6319   0.6321   0.6381   0.6412   0.6440

     occupation numbers 
     1.0000   1.0000   1.0000   1.0000   1.0000   1.0000   1.0000   1.0000
     1.0000   1.0000   1.0000   1.0000   1.0000   1.0000   1.0000   1.0000
     1.0000   1.0000   1.0000   1.0000   1.0000   1.0000   1.0000   1.0000
     1.0000   1.0000   1.0000   1.0000   1.0000   1.0000   1.0000   1.0000
     1.0000   1.0000   1.0000   1.0000   1.0000   1.0000   1.0000   1.0000
     1.0000   1.0000   1.0000   1.0000   1.0000   1.0000   1.0000   1.0000
     1.0000   1.0000   1.0000   1.0000   1.0000   1.0000   1.0000   1.0000
     1.0000   1.0000   1.0000   1.0000   1.0000   1.0000   1.0000   1.0000
     1.0000   1.0000   1.0000   1.0000   1.0000   1.0000   1.0000   1.0000
     1.0000   1.0000   1.0000   1.0000   1.0000   1.0000   1.0000   1.0000
     1.0000   1.0000   1.0000   1.0000   1.0000   1.0000   1.0000   1.0000
     1.0000   1.0000   1.0000   1.0000   1.0000   1.0000   1.0000   1.0000
     1.0000   1.0000   1.0000   1.0000   1.0000   1.0000   1.0000   1.0000
     1.0000   1.0000   1.0000   1.0000   1.0000   1.0000   1.0000   1.0000
     1.0000   1.0000   1.0000   1.0000   1.0000   1.0000   1.0000   1.0000
     1.0000   1.0000   1.0000   1.0000   1.0000   1.0000   1.0000   1.0000
     1.0000   1.0000   1.0000   1.0000   1.0000   1.0000   1.0000   1.0000
     1.0000   1.0000   1.0000   1.0000   1.0000   1.0000   1.0000   1.0000
     1.0000   1.0000   1.0000   1.0000   1.0000   1.0000   1.0000   1.0000
     1.0000   1.0000   1.0000   1.0000   1.0000   1.0000   1.0000   1.0000
     1.0000   1.0000   1.0000   1.0000   1.0000   1.0000   1.0000   1.0000
     1.0000   1.0000   1.0000   1.0000   1.0000   1.0000   1.0000   1.0000
     1.0000   1.0000   1.0000   1.0000   1.0000   1.0000   1.0000   1.0000
     1.0000   1.0000   1.0000   1.0000   1.0000   1.0000   1.0000   1.0000
     1.0000   1.0000   1.0000   1.0000   1.0000   1.0000   1.0000   1.0000
     1.0000   1.0000   1.0000   1.0000   1.0000   1.0000   1.0000   1.0000
     1.0000   1.0000   1.0000   1.0000   1.0000   1.0000   1.0000   1.0000
     1.0000   1.0000   1.0000   1.0000   1.0000   1.0000   1.0000   1.0000
     1.0000   1.0000   1.0000   1.0000   1.0000   1.0000   1.0000   1.0000
     1.0000   1.0000   1.0000   1.0000   1.0000   1.0000   1.0000   1.0000
     1.0000   1.0000   1.0000   1.0000   1.0000   1.0000   1.0000   1.0000
     1.0000   1.0000   1.0000   1.0000   1.0000   1.0000   1.0000   1.0000
     1.0000   1.0000   1.0000   1.0000   1.0000   1.0000   1.0000   1.0000
     1.0000   1.0000   1.0000   1.0000   1.0000   1.0000   1.0000   1.0000
     1.0000   1.0000   1.0000   1.0000   1.0000   1.0000   1.0000   1.0000
     1.0000   1.0000   1.0000   1.0000   1.0000   1.0000   1.0000   1.0000
     1.0000   1.0000   1.0000   1.0000   1.0000   1.0000   1.0000   1.0000
     1.0000   1.0000   1.0000   1.0000   1.0000   1.0000   1.0000   1.0000
     1.0000   1.0000   1.0000   1.0000   1.0000   1.0000   1.0000   1.0000
     1.0000   1.0000   1.0000   1.0000   1.0000   1.0000   1.0000   1.0000
     1.0000   1.0000   1.0000   1.0000   1.0000   1.0000   1.0000   1.0000
     1.0000   1.0000   1.0000   1.0000   1.0000   1.0000   1.0000   1.0000
     1.0000   1.0000   1.0000   1.0000   1.0000   1.0000   1.0000   1.0000
     1.0000   1.0000   1.0000   1.0000   1.0000   1.0000   1.0000   1.0000
     1.0000   1.0000   1.0000   1.0000   1.0000   1.0000   1.0000   1.0000
     1.0000   1.0000   1.0000   1.0000   1.0000   1.0000   1.0000   1.0000
     1.0000   1.0000   1.0000   1.0000   1.0000   1.0000   1.0000   1.0000
     1.0000   1.0000   1.0000   1.0000   1.0000   1.0000   1.0000   1.0000
     1.0000   1.0000   1.0000   1.0000   1.0000   1.0000   1.0000   1.0000
     1.0000   1.0000   1.0000   1.0000   1.0000   1.0000   1.0000   1.0000
     1.0000   1.0000   1.0000   1.0000   1.0000   1.0000   1.0000   1.0000
     1.0000   1.0000   1.0000   1.0000   1.0000   1.0000   1.0000   1.0000
     1.0000   1.0000   1.0000   1.0000   1.0000   1.0000   1.0000   1.0000
     1.0000   1.0000   1.0000   1.0000   1.0000   1.0000   1.0000   1.0000
     1.0000   1.0000   1.0000   1.0000   1.0000   1.0000   1.0000   1.0000
     1.0000   1.0000   1.0000   1.0000   1.0000   1.0000   1.0000   1.0000
     1.0000   1.0000   1.0000   1.0000   1.0000   1.0000   1.0000   1.0000
     1.0000   1.0000   1.0000   1.0000   1.0000   1.0000   1.0000   1.0000
     1.0000   1.0000   1.0000   1.0000   1.0000   1.0000   1.0000   1.0000
     1.0000   1.0000   1.0000   1.0000   1.0000   1.0000   1.0000   1.0000
     1.0000   1.0000   1.0000   1.0000   1.0000   1.0000   1.0000   1.0000
     1.0000   1.0000   1.0000   1.0000   1.0000   1.0000   1.0000   1.0000
     1.0000   1.0000   1.0000   1.0000   1.0000   1.0000   1.0000   1.0000
     1.0000   1.0000   1.0000   1.0000   1.0000   1.0000   1.0000   1.0000
     1.0000   1.0000   1.0000   1.0000   1.0000   1.0000   1.0000   1.0000
     1.0000   1.0000   1.0000   1.0000   1.0000   1.0000   1.0000   1.0000
     1.0000   1.0000   1.0000   1.0000   1.0000   1.0000   1.0000   1.0000
     1.0000   1.0000   1.0000   1.0000   1.0000   1.0000   1.0000   1.0000
     1.0000   1.0000   1.0000   1.0000   1.0000   1.0000   1.0000   1.0000
     1.0000   1.0000   1.0000   1.0000   1.0000   1.0000   1.0000   1.0000
     1.0000   1.0000   1.0000   1.0000   1.0000   1.0000   1.0000   1.0000
     1.0000   1.0000   1.0000   1.0000   1.0000   1.0000   1.0000   1.0000
     1.0000   1.0000   1.0000   1.0000   1.0000   1.0000   1.0000   1.0000
     1.0000   1.0000   1.0000   1.0000   1.0000   1.0000   1.0000   1.0000
     1.0000   1.0000   1.0000   1.0000   1.0000   1.0000   1.0000   1.0000
     1.0000   1.0000   1.0000   1.0000   1.0000   1.0000   1.0000   1.0000
     1.0000   1.0000   1.0000   1.0000   1.0000   1.0000   1.0000   1.0000
     1.0000   1.0000   1.0000   1.0000   1.0000   1.0000   1.0000   1.0000
     1.0000   1.0000   1.0000   1.0000   1.0000   1.0000   1.0000   1.0000
     1.0000   1.0000   1.0000   1.0000   1.0000   1.0000   1.0000   1.0000
     1.0000   1.0000   1.0000   1.0000   1.0000   1.0000   1.0000   1.0000
     1.0000   1.0000   1.0000   1.0000   1.0000   1.0000   1.0000   1.0000
     1.0000   1.0000   1.0000   1.0000   1.0000   1.0000   1.0000   1.0000
     1.0000   1.0000   1.0000   1.0000   1.0000   1.0000   1.0000   1.0000
     1.0000   1.0000   1.0000   1.0000   1.0000   1.0000   1.0000   1.0000
     1.0000   1.0000   1.0000   1.0000   1.0000   1.0000   1.0000   1.0000
     1.0000   1.0000   1.0000   1.0000   1.0000   1.0000   1.0000   1.0000
     1.0000   1.0000   1.0000   1.0000   1.0000   1.0000   1.0000   1.0000
     1.0000   1.0000   1.0000   1.0000   1.0000   1.0000   1.0000   1.0000
     1.0000   1.0000   1.0000   1.0000   1.0000   1.0000   1.0000   1.0000
     1.0000   1.0000   1.0000   1.0000   1.0000   1.0000   1.0000   1.0000
     1.0000   1.0000   1.0000   1.0000   1.0000   1.0000   1.0000   1.0000
     1.0000   1.0000   1.0000   1.0000   1.0000   1.0000   1.0000   1.0000
     1.0000   1.0000   1.0000   1.0000   1.0000   1.0000   1.0000   1.0000
     1.0000   1.0000   1.0000   1.0000   1.0000   1.0000   1.0000   1.0000
     1.0000   1.0000   1.0000   1.0000   1.0000   1.0000   1.0000   1.0000
     1.0000   1.0000   1.0000   1.0000   1.0000   1.0000   1.0000   1.0000
     1.0000   1.0000   1.0000   1.0000   1.0000   1.0000   1.0000   1.0000
     1.0000   1.0000   1.0000   1.0000   1.0000   1.0000   1.0000   1.0000
     1.0000   1.0000   1.0000   1.0000   1.0000   1.0000   1.0000   1.0000
     1.0000   1.0000   1.0000   1.0000   1.0000   1.0000   1.0000   1.0000
     1.0000   1.0000   1.0000   1.0000   1.0000   1.0000   1.0000   1.0000
     1.0000   1.0000   1.0000   1.0000   1.0000   1.0000   1.0000   1.0000
     1.0000   1.0000   1.0000   1.0000   1.0000   1.0000   1.0000   1.0000
     1.0000   1.0000   1.0000   1.0000   1.0000   1.0000   1.0000   1.0000
     1.0000   1.0000   1.0000   1.0000   1.0000   1.0000   1.0000   1.0000
     1.0000   1.0000   1.0000   1.0000   1.0000   1.0000   1.0000   1.0000
     1.0000   1.0000   1.0000   1.0000   1.0000   1.0000   1.0000   1.0000
     1.0000   1.0000   1.0000   1.0000   1.0000   1.0000   1.0000   1.0000
     1.0000   1.0000   1.0000   1.0000   1.0000   1.0000   1.0000   1.0000
     1.0000   1.0000   1.0000   1.0000   1.0000   1.0000   1.0000   1.0000
     1.0000   1.0000   1.0000   1.0000   1.0000   1.0000   1.0000   1.0000
     1.0000   1.0000   1.0000   1.0000   1.0000   1.0000   1.0000   1.0000
     1.0000   1.0000   1.0000   1.0000   1.0000   1.0000   1.0000   1.0000
     1.0000   1.0000   1.0000   1.0000   1.0000   1.0000   1.0000   1.0000
     1.0000   1.0000   1.0000   1.0000   1.0000   1.0000   1.0000   1.0000
     1.0000   1.0000   1.0000   1.0000   1.0000   1.0000   1.0000   1.0000
     1.0000   1.0000   1.0000   1.0000   1.0000   1.0000   1.0000   1.0000
     1.0000   1.0000   1.0000   1.0000   1.0000   1.0000   1.0000   1.0000
     1.0000   1.0000   1.0000   1.0000   1.0000   1.0000   1.0000   1.0000
     1.0000   1.0000   1.0000   1.0000   1.0000   1.0000   1.0000   1.0000
     1.0000   1.0000   1.0000   1.0000   1.0000   1.0000   1.0000   1.0000
     1.0000   1.0000   1.0000   1.0000   1.0000   1.0000   1.0000   1.0000
     1.0000   1.0000   1.0000   1.0000   1.0000   1.0000   1.0000   1.0000
     1.0000   1.0000   1.0000   1.0000   1.0000   1.0000   1.0000   1.0000
     1.0000   1.0000   1.0000   1.0000   1.0000   1.0000   1.0000   1.0000
     1.0000   1.0000   1.0000   1.0000   1.0000   1.0000   1.0000   1.0000
     1.0000   1.0000   1.0000   1.0000   1.0000   1.0000   1.0000   1.0000
     1.0000   1.0000   1.0000   1.0000   1.0000   1.0000   1.0000   1.0000
     1.0000   1.0000   1.0000   1.0000   1.0000   1.0000   1.0000   1.0000
     1.0000   1.0000   1.0000   1.0000   1.0000   1.0000   1.0000   1.0000
     1.0000   1.0000   1.0000   1.0000   1.0000   1.0000   1.0000   1.0000
     1.0000   1.0000   1.0000   1.0000   1.0000   1.0000   1.0000   1.0000
     1.0000   1.0000   1.0000   1.0000   1.0000   1.0000   1.0000   1.0000
     1.0000   1.0000   1.0000   1.0000   1.0000   1.0000   1.0000   1.0000
     1.0000   1.0000   1.0000   1.0000   1.0000   1.0000   1.0000   1.0000
     1.0000   1.0000   1.0000   1.0000   1.0000   1.0000   1.0000   1.0000
     1.0000   1.0000   1.0000   1.0000   1.0000   1.0000   1.0000   1.0000
     1.0000   1.0000   1.0000   1.0000   1.0000   1.0000   1.0000   1.0000
     1.0000   1.0000   1.0000   1.0000   1.0000   1.0000   1.0000   1.0000
     1.0000   1.0000   1.0000   1.0000   1.0000   1.0000   1.0000   1.0000
     1.0000   1.0000   1.0000   1.0000   1.0000   1.0000   1.0000   1.0000
     1.0000   1.0000   1.0000   1.0000   1.0000   1.0000   1.0000   1.0000
     1.0000   1.0000   1.0000   1.0000   1.0000   1.0000   1.0000   1.0000
     1.0000   1.0000   1.0000   1.0000   1.0000   1.0000   1.0000   1.0000
     1.0000   1.0000   1.0000   1.0000   1.0000   1.0000   1.0000   1.0000
     1.0000   1.0000   1.0000   1.0000   1.0000   1.0000   1.0000   1.0000
     1.0000   1.0000   1.0000   1.0000   1.0000   1.0000   1.0000   1.0000
     1.0000   1.0000   1.0000   1.0000   1.0000   1.0000   1.0000   1.0000
     1.0000   1.0000   1.0000   1.0000   1.0000   1.0000   1.0000   1.0000
     1.0000   1.0000   1.0000   1.0000   1.0000   1.0000   1.0000   1.0000
     1.0000   1.0000   1.0000   1.0000   1.0000   1.0000   1.0000   1.0000
     1.0000   1.0000   1.0000   1.0000   1.0000   1.0000   1.0000   1.0000
     1.0000   1.0000   1.0000   1.0000   1.0000   1.0000   1.0000   1.0000
     1.0000   1.0000   1.0000   1.0000   1.0000   1.0000   1.0000   1.0000
     1.0000   1.0000   1.0000   1.0000   1.0000   1.0000   1.0000   1.0000
     1.0000   1.0000   1.0000   1.0000   1.0000   1.0000   1.0000   1.0000
     1.0000   1.0000   1.0000   1.0000   1.0000   1.0000   1.0000   1.0000
     1.0000   1.0000   1.0000   1.0000   1.0000   1.0000   1.0000   1.0000
     1.0000   1.0000   1.0000   1.0000   1.0000   1.0000   1.0000   1.0000
     1.0000   1.0000   1.0000   1.0000   1.0000   1.0000   1.0000   1.0000
     1.0000   1.0000   1.0000   1.0000   1.0000   1.0000   1.0000   1.0000
     1.0000   1.0000   1.0000   1.0000   1.0000   1.0000   1.0000   1.0000
     1.0000   1.0000   1.0000   1.0000   1.0000   1.0000   1.0000   1.0000
     1.0000   1.0000   1.0000   1.0000   1.0000   1.0000   1.0000   1.0000
     1.0000   1.0000   1.0000   1.0000   1.0000   1.0000   1.0000   1.0000
     1.0000   1.0000   1.0000   1.0000   1.0000   1.0000   1.0001   1.0001
     1.0001   1.0001   1.0002   1.0002   1.0002   1.0003   1.0003   1.0004
     1.0004   1.0005   1.0006   1.0009   1.0010   1.0016   1.0017   1.0021
     1.0024   1.0028   1.0034   1.0038   1.0044   1.0048   1.0054   1.0057
     1.0067   1.0083   1.0088   1.0106   1.0118   1.0144   1.0147   1.0187
     1.0206   1.0230   1.0322   1.0339   1.0358   1.0447   1.0468   1.0508
     1.0579   1.0666   1.0681   1.0701   1.0755   1.0796   1.0820   1.0827
     1.0832   1.0822   1.0773   1.0688   1.0620   1.0244   1.0034   0.9961
     0.9593   0.9433   0.9040   0.8357   0.7225   0.6263   0.5351   0.2988
     0.2705   0.1641   0.1166   0.0688   0.0396   0.0286   0.0251   0.0169
     0.0111   0.0066   0.0046   0.0040   0.0036   0.0025   0.0020   0.0015
     0.0009   0.0007   0.0004   0.0003   0.0002   0.0002   0.0001   0.0001
     0.0001   0.0001   0.0000   0.0000   0.0000   0.0000   0.0000   0.0000
     0.0000   0.0000   0.0000   0.0000   0.0000   0.0000   0.0000   0.0000
     0.0000   0.0000   0.0000   0.0000   0.0000   0.0000   0.0000   0.0000
     0.0000   0.0000   0.0000   0.0000   0.0000   0.0000   0.0000   0.0000
     0.0000   0.0000   0.0000   0.0000   0.0000   0.0000   0.0000   0.0000
     0.0000   0.0000   0.0000   0.0000   0.0000   0.0000   0.0000   0.0000
     0.0000   0.0000   0.0000   0.0000   0.0000   0.0000   0.0000   0.0000
     0.0000   0.0000   0.0000   0.0000   0.0000   0.0000   0.0000   0.0000
     0.0000   0.0000   0.0000   0.0000   0.0000   0.0000   0.0000   0.0000
     0.0000   0.0000   0.0000   0.0000   0.0000   0.0000   0.0000   0.0000
     0.0000   0.0000   0.0000   0.0000   0.0000   0.0000   0.0000   0.0000
[...]
     atom   18 type  1   force =    -0.00000034    0.00000140    0.00000863
     atom   19 type  1   force =    -0.00000120   -0.00000103   -0.00000426
     atom   20 type  1   force =    -0.00000066    0.00000810    0.00001111
     atom   21 type  1   force =     0.00000082    0.00000339   -0.00000881
     atom   22 type  1   force =    -0.00000391    0.00000959    0.00000664
     atom   23 type  1   force =    -0.00000230    0.00000728   -0.00001240
     atom   24 type  1   force =    -0.00000074    0.00000611    0.00000857
     atom   25 type  1   force =    -0.00000050    0.00000713   -0.00000121
     atom   26 type  1   force =     0.00000037    0.00000785    0.00000747
     atom   27 type  1   force =    -0.00000033    0.00000705   -0.00000514
     atom   28 type  1   force =     0.00000684    0.00000748    0.00000622
     atom   29 type  1   force =    -0.00000452    0.00000693   -0.00000551
     atom   30 type  1   force =    -0.00000223    0.00000276    0.00001519
     atom   31 type  1   force =     0.00000235    0.00000208   -0.00000360
     atom   32 type  1   force =     0.00000528    0.00000705    0.00001679
     atom   33 type  1   force =     0.00000046    0.00000719   -0.00000005
     atom   34 type  1   force =     0.00000557    0.00000628   -0.00000505
     atom   35 type  1   force =    -0.00000417    0.00001840    0.00000279
     atom   36 type  1   force =    -0.00000389   -0.00000006    0.00000494
     atom   37 type  1   force =     0.00000947    0.00000206   -0.00000131
     atom   38 type  1   force =     0.00000352    0.00001008    0.00000958
     atom   39 type  1   force =    -0.00000453    0.00000626   -0.00000684
     atom   40 type  1   force =    -0.00000554    0.00000366    0.00001634
     atom   41 type  1   force =    -0.00000330    0.00001097    0.00000405
     atom   42 type  1   force =    -0.00000147    0.00001288    0.00001063
     atom   43 type  1   force =    -0.00000399    0.00000865   -0.00000422
     atom   44 type  1   force =     0.00000082    0.00001246    0.00001475
     atom   45 type  1   force =    -0.00000415    0.00000795    0.00000575
     atom   46 type  1   force =    -0.00000039    0.00000788    0.00001527
     atom   47 type  1   force =     0.00000133    0.00000524   -0.00000333
     atom   48 type  1   force =     0.00000022    0.00000721    0.00001146
     atom   49 type  1   force =    -0.00000752    0.00000390   -0.00000169
     atom   50 type  1   force =    -0.00000074    0.00000480    0.00001430
     atom   51 type  1   force =    -0.00000081    0.00000544   -0.00000833
     atom   52 type  1   force =     0.00000614   -0.00000063    0.00001461
     atom   53 type  1   force =    -0.00000112    0.00000229    0.00000136
     atom   54 type  1   force =     0.00000679    0.00000840    0.00002379
     atom   55 type  1   force =    -0.00000417    0.00000892    0.00000610
     atom   56 type  1   force =     0.00000057    0.00001187    0.00002499
     atom   57 type  1   force =     0.00000996    0.00000940    0.00000198
     atom   58 type  1   force =     0.00000037    0.00001656    0.00000923
     atom   59 type  1   force =    -0.00000168    0.00001201   -0.00000255
     atom   60 type  1   force =    -0.00000035    0.00001300    0.00001256
     atom   61 type  1   force =    -0.00000518    0.00000969   -0.00000446
     atom   62 type  1   force =     0.00000299    0.00000336    0.00000985
     atom   63 type  1   force =    -0.00000569    0.00001029    0.00000817
     atom   64 type  1   force =    -0.00000462    0.00000320    0.00001522
     atom   65 type  1   force =    -0.00000260    0.00000465    0.00000224
     atom   66 type  1   force =    -0.00000386    0.00000646    0.00001500
     atom   67 type  1   force =    -0.00000058    0.00000335   -0.00000005
     atom   68 type  1   force =    -0.00000214    0.00000469    0.00002388
     atom   69 type  1   force =    -0.00000335    0.00000259   -0.00000064
     atom   70 type  1   force =    -0.00000144    0.00000822    0.00001090
     atom   71 type  1   force =     0.00000256    0.00001628    0.00001250
     atom   72 type  1   force =     0.00000542   -0.00000128    0.00000250
     atom   73 type  1   force =     0.00000152    0.00000723    0.00001508
     atom   74 type  1   force =     0.00000756    0.00000553    0.00001507
     atom   75 type  1   force =     0.00000583    0.00000836    0.00000453
     atom   76 type  1   force =     0.00000585    0.00000716    0.00002253
     atom   77 type  1   force =     0.00000265    0.00000895    0.00000704
     atom   78 type  1   force =    -0.00000095    0.00000854    0.00001542
     atom   79 type  1   force =     0.00000087    0.00001131    0.00000847
     atom   80 type  1   force =    -0.00000610    0.00000613    0.00001407
     atom   81 type  1   force =    -0.00000361    0.00000503    0.00000187
     atom   82 type  1   force =    -0.00000246    0.00000098    0.00001150
     atom   83 type  1   force =    -0.00000768    0.00000190    0.00000977
     atom   84 type  1   force =    -0.00000613    0.00000432    0.00002330
     atom   85 type  1   force =     0.00000391    0.00000134    0.00000462
     atom   86 type  1   force =    -0.00000784    0.00000226    0.00001886
     atom   87 type  1   force =    -0.00000045    0.00000145    0.00000539
     atom   88 type  1   force =    -0.00000109    0.00000267    0.00002139
     atom   89 type  1   force =     0.00000553   -0.00000082    0.00001155
     atom   90 type  1   force =    -0.00001023    0.00000670    0.00002290
     atom   91 type  1   force =     0.00000831    0.00000859    0.00002222
     atom   92 type  1   force =    -0.00000219   -0.00000089    0.00001748
     atom   93 type  1   force =     0.00000523   -0.00000080    0.00001750
     atom   94 type  1   force =     0.00000766    0.00000258    0.00000709
     atom   95 type  1   force =     0.00001091    0.00000517    0.00000681
     atom   96 type  1   force =     0.00000629   -0.00000493    0.00001617
     atom   97 type  1   force =     0.00000443    0.00000406    0.00000169
     atom   98 type  1   force =     0.00000490    0.00000235    0.00001763
     atom   99 type  1   force =    -0.00000094    0.00000198    0.00000773
     atom  100 type  1   force =    -0.00000476    0.00000376    0.00002146
     atom  101 type  1   force =    -0.00000608   -0.00000900   -0.00000167
     atom  102 type  1   force =    -0.00000241   -0.00000513    0.00001432
     atom  103 type  1   force =    -0.00000782   -0.00000037    0.00000590
     atom  104 type  1   force =    -0.00000343   -0.00000937    0.00001956
     atom  105 type  1   force =    -0.00000272   -0.00000015    0.00000414
     atom  106 type  1   force =    -0.00000701   -0.00000473    0.00002311
     atom  107 type  1   force =    -0.00000053   -0.00000202    0.00000492
     atom  108 type  1   force =    -0.00000150   -0.00000068    0.00001585
     atom  109 type  1   force =     0.00000087   -0.00000003   -0.00000136
     atom  110 type  1   force =    -0.00000468   -0.00000565    0.00001572
     atom  111 type  1   force =     0.00000282    0.00000105    0.00000896
     atom  112 type  1   force =     0.00000851   -0.00000427    0.00001234
     atom  113 type  1   force =     0.00000384   -0.00000072    0.00000869
     atom  114 type  1   force =     0.00000837    0.00000928    0.00001548
     atom  115 type  1   force =     0.00000373    0.00000168   -0.00000014
     atom  116 type  1   force =     0.00000490   -0.00000200    0.00001785
     atom  117 type  1   force =     0.00000445   -0.00000529    0.00000559
     atom  118 type  1   force =     0.00000156    0.00000045    0.00001646
     atom  119 type  1   force =    -0.00000125   -0.00000186    0.00000253
     atom  120 type  1   force =    -0.00000182   -0.00000552    0.00001228
     atom  121 type  1   force =    -0.00000370   -0.00000737    0.00000198
     atom  122 type  1   force =    -0.00000612   -0.00000516    0.00001784
     atom  123 type  1   force =    -0.00000392   -0.00000085   -0.00000220
     atom  124 type  1   force =    -0.00000296   -0.00001260    0.00001239
     atom  125 type  1   force =    -0.00000878   -0.00000771   -0.00000038
     atom  126 type  1   force =    -0.00000194   -0.00001274    0.00001751
     atom  127 type  1   force =     0.00000147   -0.00000669   -0.00000344
     atom  128 type  1   force =     0.00000334   -0.00000758    0.00001352
     atom  129 type  1   force =     0.00000056   -0.00000650   -0.00000040
     atom  130 type  1   force =     0.00000449   -0.00000362    0.00001057
     atom  131 type  1   force =    -0.00000122   -0.00000345   -0.00000149
     atom  132 type  1   force =     0.00000815   -0.00000520    0.00001330
     atom  133 type  1   force =     0.00000325   -0.00000371    0.00001220
     atom  134 type  1   force =    -0.00000095   -0.00000524    0.00002308
     atom  135 type  1   force =     0.00000688   -0.00000710    0.00000149
     atom  136 type  1   force =     0.00000344   -0.00000381    0.00001070
     atom  137 type  1   force =    -0.00000022   -0.00000729   -0.00000374
     atom  138 type  1   force =    -0.00000202   -0.00001023    0.00001484
     atom  139 type  1   force =     0.00000069   -0.00000925    0.00000032
     atom  140 type  1   force =    -0.00000121   -0.00000616    0.00001575
     atom  141 type  1   force =    -0.00000442   -0.00000884   -0.00000064
     atom  142 type  1   force =    -0.00000553   -0.00000980    0.00001707
     atom  143 type  1   force =    -0.00000596   -0.00000680   -0.00001122
     atom  144 type  1   force =    -0.00000811   -0.00000536    0.00001384
     atom  145 type  1   force =    -0.00000414   -0.00000847   -0.00000371
     atom  146 type  1   force =     0.00000031   -0.00000993    0.00001147
     atom  147 type  1   force =    -0.00000152   -0.00001298   -0.00000521
     atom  148 type  1   force =     0.00000640   -0.00000624    0.00001277
     atom  149 type  1   force =    -0.00000143   -0.00000839   -0.00000793
     atom  150 type  1   force =     0.00000333   -0.00001194    0.00000613
     atom  151 type  1   force =    -0.00000018   -0.00000667    0.00000324
     atom  152 type  1   force =     0.00000389   -0.00001101    0.00001106
     atom  153 type  1   force =     0.00000013   -0.00000446   -0.00000524
     atom  154 type  1   force =    -0.00000099   -0.00001462    0.00001803
     atom  155 type  1   force =     0.00000801   -0.00000951   -0.00000460
     atom  156 type  1   force =     0.00000029   -0.00001111    0.00001233
     atom  157 type  1   force =     0.00000110   -0.00001201   -0.00000338
     atom  158 type  1   force =    -0.00000032   -0.00000674    0.00001037
     atom  159 type  1   force =    -0.00000566   -0.00001173   -0.00000092
     atom  160 type  1   force =    -0.00000304   -0.00000915    0.00001441
     atom  161 type  1   force =    -0.00000306   -0.00000541   -0.00000660
     atom  162 type  1   force =    -0.00000343   -0.00000726    0.00001285
     atom  163 type  1   force =    -0.00000372   -0.00000808   -0.00000764
     atom  164 type  1   force =    -0.00000394   -0.00000671    0.00001522
     atom  165 type  1   force =    -0.00000053   -0.00000312   -0.00001018
     atom  166 type  1   force =    -0.00000088   -0.00000304    0.00000735
     atom  167 type  1   force =    -0.00000300   -0.00000736   -0.00000568
     atom  168 type  1   force =     0.00000003    0.00000224    0.00001127
     atom  169 type  1   force =    -0.00000280    0.00000096   -0.00000148
     atom  170 type  1   force =     0.00000670   -0.00000850    0.00001062
     atom  171 type  1   force =     0.00000171   -0.00000822   -0.00000206
     atom  172 type  1   force =     0.00000710   -0.00000544    0.00001288
     atom  173 type  1   force =     0.00000691   -0.00000907   -0.00000602
     atom  174 type  1   force =     0.00000161   -0.00000637    0.00000792
     atom  175 type  1   force =     0.00000405   -0.00000641   -0.00000954
     atom  176 type  1   force =     0.00000007   -0.00000393    0.00000882
     atom  177 type  1   force =     0.00000186   -0.00000401   -0.00000499
     atom  178 type  1   force =     0.00000092   -0.00000852    0.00001268
     atom  179 type  1   force =    -0.00000176   -0.00000396   -0.00000130
     atom  180 type  1   force =    -0.00000577   -0.00000615    0.00000872
     atom  181 type  1   force =    -0.00000227   -0.00000066   -0.00000569
     atom  182 type  1   force =    -0.00000241   -0.00000348    0.00001443
     atom  183 type  1   force =    -0.00000206   -0.00000212   -0.00000392
     atom  184 type  1   force =    -0.00000455   -0.00000143    0.00001047
     atom  185 type  1   force =     0.00000473    0.00000125   -0.00000748
     atom  186 type  1   force =     0.00000071    0.00000090    0.00000901
     atom  187 type  1   force =     0.00000221    0.00000018   -0.00000192
     atom  188 type  1   force =     0.00000488    0.00000318   -0.00000253
     atom  189 type  1   force =    -0.00000810   -0.00000044   -0.00000730
     atom  190 type  1   force =    -0.00000057    0.00000146   -0.00000520
     atom  191 type  1   force =     0.00000360    0.00000254   -0.00000055
     atom  192 type  1   force =     0.00000446    0.00000425    0.00000824
     atom  193 type  1   force =    -0.00000254   -0.00000710   -0.00000119
     atom  194 type  1   force =    -0.00000149   -0.00000119    0.00000595
     atom  195 type  1   force =     0.00000487   -0.00000621   -0.00000360
     atom  196 type  1   force =    -0.00000061   -0.00000326    0.00000270
     atom  197 type  1   force =     0.00000015   -0.00000628   -0.00000594
     atom  198 type  1   force =    -0.00000073   -0.00000183    0.00000606
     atom  199 type  1   force =    -0.00000303   -0.00000539   -0.00000691
     atom  200 type  1   force =    -0.00000044   -0.00000465    0.00001141

     Total force =     0.356159     Total SCF correction =     0.000188


     Computing stress (Cartesian axis) and pressure


     negative rho (up, down):  4.022E-02 0.000E+00
          total   stress  (Ry/bohr**3)                   (kbar)     P=   -1.60
  -0.00001276  -0.00000027   0.00000049         -1.88     -0.04      0.07
  -0.00000027  -0.00000971  -0.00000019         -0.04     -1.43     -0.03
   0.00000049  -0.00000019  -0.00001011          0.07     -0.03     -1.49

     kinetic stress (kbar)    482.32      0.00     -0.03
                                0.00    482.27      0.01
                               -0.03      0.01    487.04

     local   stress (kbar) -51671.35      6.24     -0.80
                                6.24 -51673.07      0.12
                               -0.80      0.12  51659.29

     nonloc. stress (kbar)    601.64     -0.06      0.04
                               -0.06    601.98     -0.03
                                0.04     -0.03    591.38

     hartree stress (kbar)  26262.61     -2.31     -0.43
                               -2.31  26258.58      0.36
                               -0.43      0.36 -24800.40

     exc-cor stress (kbar)    768.23     -0.00      0.00
                               -0.00    768.25     -0.00
                                0.00     -0.00    767.48

     corecor stress (kbar)  -1148.42      0.00     -0.00
                                0.00  -1148.44      0.00
                               -0.00      0.00  -1148.00

     ewald   stress (kbar)  24703.10     -3.91      1.30
                               -3.91  24709.00     -0.49
                                1.30     -0.49 -27558.27

     hubbard stress (kbar)      0.00      0.00      0.00
                                0.00      0.00      0.00
                                0.00      0.00      0.00

     london  stress (kbar)      0.00      0.00      0.00
                                0.00      0.00      0.00
                                0.00      0.00      0.00

     DFT-D3  stress (kbar)      0.00      0.00      0.00
                                0.00      0.00      0.00
                                0.00      0.00      0.00

     XDM     stress (kbar)      0.00      0.00      0.00
                                0.00      0.00      0.00
                                0.00      0.00      0.00

     dft-nl  stress (kbar)      0.00      0.00      0.00
                                0.00      0.00      0.00
                                0.00      0.00      0.00

     TS-vdW  stress (kbar)      0.00      0.00      0.00
                                0.00      0.00      0.00
                                0.00      0.00      0.00



     Writing output data file scf.save/
 
     init_run     :    100.86s CPU    106.12s WALL (       1 calls)
     electrons    :  12953.81s CPU  13187.84s WALL (       1 calls)
     forces       :     14.93s CPU     15.64s WALL (       1 calls)
     stress       :    275.89s CPU    277.62s WALL (       1 calls)

     Called by init_run:
     wfcinit      :     63.33s CPU     64.51s WALL (       1 calls)
     wfcinit:atom :      0.07s CPU      0.10s WALL (       1 calls)
     wfcinit:wfcr :     63.16s CPU     64.23s WALL (       1 calls)
     potinit      :      1.32s CPU      1.38s WALL (       1 calls)
     hinit0       :      5.45s CPU      8.99s WALL (       1 calls)

     Called by electrons:
     c_bands      :   8023.66s CPU   8163.45s WALL (      30 calls)
     sum_band     :    899.00s CPU    918.78s WALL (      30 calls)
     v_of_rho     :     29.20s CPU     29.92s WALL (      31 calls)
     v_h          :      4.68s CPU      4.79s WALL (      31 calls)
     v_xc         :     25.81s CPU     26.45s WALL (      33 calls)
     newd         :     28.31s CPU     33.12s WALL (      31 calls)
     mix_rho      :   3966.97s CPU   4034.33s WALL (      30 calls)

     Called by c_bands:
     init_us_2    :      5.65s CPU      5.74s WALL (      61 calls)
     regterg      :   7989.59s CPU   8128.78s WALL (      42 calls)

     Called by sum_band:
     sum_band:bec :      0.72s CPU      0.73s WALL (      30 calls)
     addusdens    :     25.34s CPU     29.93s WALL (      30 calls)

     Called by *egterg:
     h_psi        :   5450.85s CPU   5539.65s WALL (     664 calls)
     s_psi        :    243.18s CPU    245.20s WALL (     664 calls)
     g_psi        :      1.96s CPU      1.97s WALL (     621 calls)
     rdiaghg      :   1238.69s CPU   1256.03s WALL (     663 calls)
     regterg:over :    390.38s CPU    398.01s WALL (     621 calls)
     regterg:upda :    434.60s CPU    438.34s WALL (     621 calls)
     regterg:last :    153.62s CPU    154.59s WALL (      43 calls)
     rdiaghg:chol :     32.09s CPU     32.83s WALL (     663 calls)
     rdiaghg:inve :     34.12s CPU     34.62s WALL (     663 calls)
     rdiaghg:para :     94.04s CPU     98.15s WALL (    1326 calls)

     Called by h_psi:
     h_psi:pot    :   5446.46s CPU   5535.24s WALL (     664 calls)
     h_psi:calbec :    269.17s CPU    273.56s WALL (     664 calls)
     vloc_psi     :   4931.60s CPU   5013.81s WALL (     664 calls)
     add_vuspsi   :    245.68s CPU    247.86s WALL (     664 calls)

     General routines
     calbec       :    349.57s CPU    355.43s WALL (     699 calls)
     fft          :     45.61s CPU     50.08s WALL (     359 calls)
     ffts         :   3603.26s CPU   3666.90s WALL (   83034 calls)
     fftw         :   5438.67s CPU   5532.47s WALL (  194014 calls)
     interpolate  :      6.02s CPU      6.15s WALL (      31 calls)
 
     Parallel routines
     fft_scatt_xy :    209.03s CPU    210.69s WALL (  277407 calls)
     fft_scatt_yz :   8245.39s CPU   8400.84s WALL (  277407 calls)
 
     PWSCF        :      3h43m CPU      3h48m WALL

 
   This run was terminated on:   3: 6:46   6Dec2019            

=------------------------------------------------------------------------------=
   JOB DONE.
=------------------------------------------------------------------------------=
